
Host: HP-Pavilion-Gaming-Laptop-15-ec1xxx

Timers On : Tue Jul 13 20:26:55 2021
Timers Off: Tue Jul 13 20:45:28 2021

Wall Time:     1113.87 seconds

                                                       Time (seconds)
Module                                       User      System        Wall        Calls

--------------------------------------------------------------------------------------

**************************************************************************************

Host: HP-Pavilion-Gaming-Laptop-15-ec1xxx

Timers On : Tue Jul 13 23:53:15 2021
Timers Off: Wed Jul 14 08:12:29 2021

Wall Time:    29953.29 seconds

                                                       Time (seconds)
Module                                       User      System        Wall        Calls

--------------------------------------------------------------------------------------

**************************************************************************************

Host: HP-Pavilion-Gaming-Laptop-15-ec1xxx

Timers On : Wed Jul 14 08:12:50 2021
Timers Off: Wed Jul 14 08:32:44 2021

Wall Time:     1194.60 seconds

                                                       Time (seconds)
Module                                       User      System        Wall        Calls

--------------------------------------------------------------------------------------

**************************************************************************************

Host: HP-Pavilion-Gaming-Laptop-15-ec1xxx

Timers On : Wed Jul 14 08:51:27 2021
Timers Off: Wed Jul 14 09:01:39 2021

Wall Time:      612.20 seconds

                                                       Time (seconds)
Module                                       User      System        Wall        Calls

--------------------------------------------------------------------------------------

**************************************************************************************

Host: HP-Pavilion-Gaming-Laptop-15-ec1xxx

Timers On : Wed Jul 14 09:10:13 2021
Timers Off: Wed Jul 14 09:32:04 2021

Wall Time:     1310.64 seconds

                                                       Time (seconds)
Module                                       User      System        Wall        Calls

--------------------------------------------------------------------------------------

**************************************************************************************

Host: HP-Pavilion-Gaming-Laptop-15-ec1xxx

Timers On : Wed Jul 14 09:43:02 2021
Timers Off: Wed Jul 14 13:26:36 2021

Wall Time:    13414.68 seconds

                                                       Time (seconds)
Module                                       User      System        Wall        Calls

--------------------------------------------------------------------------------------

**************************************************************************************

Host: HP-Pavilion-Gaming-Laptop-15-ec1xxx

Timers On : Wed Jul 14 14:19:54 2021
Timers Off: Wed Jul 14 15:50:06 2021

Wall Time:     5412.51 seconds

                                                       Time (seconds)
Module                                       User      System        Wall        Calls

--------------------------------------------------------------------------------------

**************************************************************************************
