
Host: fedora

Timers On : Fri Jun  4 21:03:06 2021
Timers Off: Fri Jun  4 21:03:07 2021

Wall Time:        0.55 seconds

                                                       Time (seconds)
Module                                       User      System        Wall        Calls

--------------------------------------------------------------------------------------

**************************************************************************************

Host: fedora

Timers On : Fri Jun  4 21:03:26 2021
Timers Off: Fri Jun  4 21:03:27 2021

Wall Time:        0.54 seconds

                                                       Time (seconds)
Module                                       User      System        Wall        Calls

--------------------------------------------------------------------------------------

**************************************************************************************

Host: fedora

Timers On : Fri Jun  4 21:03:46 2021
Timers Off: Fri Jun  4 21:03:47 2021

Wall Time:        0.56 seconds

                                                       Time (seconds)
Module                                       User      System        Wall        Calls

--------------------------------------------------------------------------------------

**************************************************************************************

Host: fedora

Timers On : Fri Jun  4 21:04:01 2021
Timers Off: Fri Jun  4 21:04:01 2021

Wall Time:        0.56 seconds

                                                       Time (seconds)
Module                                       User      System        Wall        Calls

--------------------------------------------------------------------------------------

**************************************************************************************

Host: fedora

Timers On : Fri Jun  4 21:04:15 2021
Timers Off: Fri Jun  4 21:04:15 2021

Wall Time:        0.57 seconds

                                                       Time (seconds)
Module                                       User      System        Wall        Calls

--------------------------------------------------------------------------------------

**************************************************************************************

Host: fedora

Timers On : Fri Jun  4 21:04:32 2021
Timers Off: Fri Jun  4 21:04:32 2021

Wall Time:        0.57 seconds

                                                       Time (seconds)
Module                                       User      System        Wall        Calls

--------------------------------------------------------------------------------------

**************************************************************************************

Host: fedora

Timers On : Fri Jun  4 21:04:48 2021
Timers Off: Fri Jun  4 21:07:54 2021

Wall Time:      185.53 seconds

                                                       Time (seconds)
Module                                       User      System        Wall        Calls

--------------------------------------------------------------------------------------

**************************************************************************************

Host: fedora

Timers On : Fri Jun  4 21:08:24 2021
Timers Off: Fri Jun  4 21:08:24 2021

Wall Time:        0.47 seconds

                                                       Time (seconds)
Module                                       User      System        Wall        Calls

--------------------------------------------------------------------------------------

**************************************************************************************

Host: fedora

Timers On : Fri Jun  4 21:31:30 2021
Timers Off: Fri Jun  4 21:31:30 2021

Wall Time:        0.72 seconds

                                                       Time (seconds)
Module                                       User      System        Wall        Calls

--------------------------------------------------------------------------------------

**************************************************************************************

Host: fedora

Timers On : Fri Jun  4 21:32:09 2021
Timers Off: Fri Jun  4 21:32:10 2021

Wall Time:        0.70 seconds

                                                       Time (seconds)
Module                                       User      System        Wall        Calls

--------------------------------------------------------------------------------------

**************************************************************************************

Host: fedora

Timers On : Fri Jun  4 21:32:45 2021
Timers Off: Fri Jun  4 21:32:45 2021

Wall Time:        0.71 seconds

                                                       Time (seconds)
Module                                       User      System        Wall        Calls

--------------------------------------------------------------------------------------

**************************************************************************************

Host: fedora

Timers On : Fri Jun  4 21:34:55 2021
Timers Off: Fri Jun  4 21:34:56 2021

Wall Time:        0.48 seconds

                                                       Time (seconds)
Module                                       User      System        Wall        Calls

--------------------------------------------------------------------------------------

**************************************************************************************

Host: fedora

Timers On : Fri Jun  4 21:36:31 2021
Timers Off: Fri Jun  4 21:36:32 2021

Wall Time:        0.86 seconds

                                                       Time (seconds)
Module                                       User      System        Wall        Calls

--------------------------------------------------------------------------------------

**************************************************************************************

Host: fedora

Timers On : Fri Jun  4 21:43:09 2021
Timers Off: Fri Jun  4 21:43:09 2021

Wall Time:        0.47 seconds

                                                       Time (seconds)
Module                                       User      System        Wall        Calls

--------------------------------------------------------------------------------------

**************************************************************************************

Host: fedora

Timers On : Fri Jun  4 21:46:40 2021
Timers Off: Fri Jun  4 21:46:40 2021

Wall Time:        0.73 seconds

                                                       Time (seconds)
Module                                       User      System        Wall        Calls

--------------------------------------------------------------------------------------

**************************************************************************************

Host: fedora

Timers On : Fri Jun  4 21:47:15 2021
Timers Off: Fri Jun  4 21:47:16 2021

Wall Time:        0.90 seconds

                                                       Time (seconds)
Module                                       User      System        Wall        Calls

--------------------------------------------------------------------------------------

**************************************************************************************

Host: fedora

Timers On : Fri Jun  4 21:47:38 2021
Timers Off: Fri Jun  4 21:47:39 2021

Wall Time:        0.90 seconds

                                                       Time (seconds)
Module                                       User      System        Wall        Calls

--------------------------------------------------------------------------------------

**************************************************************************************

Host: fedora

Timers On : Fri Jun  4 21:53:42 2021
Timers Off: Fri Jun  4 21:53:43 2021

Wall Time:        0.62 seconds

                                                       Time (seconds)
Module                                       User      System        Wall        Calls

--------------------------------------------------------------------------------------

**************************************************************************************

Host: fedora

Timers On : Fri Jun  4 21:54:50 2021
Timers Off: Fri Jun  4 21:54:50 2021

Wall Time:        0.65 seconds

                                                       Time (seconds)
Module                                       User      System        Wall        Calls

--------------------------------------------------------------------------------------

**************************************************************************************

Host: fedora

Timers On : Fri Jun  4 21:56:07 2021
Timers Off: Fri Jun  4 21:56:08 2021

Wall Time:        0.66 seconds

                                                       Time (seconds)
Module                                       User      System        Wall        Calls

--------------------------------------------------------------------------------------

**************************************************************************************

Host: fedora

Timers On : Fri Jun  4 21:56:58 2021
Timers Off: Fri Jun  4 21:56:58 2021

Wall Time:        0.59 seconds

                                                       Time (seconds)
Module                                       User      System        Wall        Calls

--------------------------------------------------------------------------------------

**************************************************************************************

Host: fedora

Timers On : Fri Jun  4 21:57:17 2021
Timers Off: Fri Jun  4 21:57:17 2021

Wall Time:        0.71 seconds

                                                       Time (seconds)
Module                                       User      System        Wall        Calls

--------------------------------------------------------------------------------------

**************************************************************************************

Host: fedora

Timers On : Fri Jun  4 21:57:32 2021
Timers Off: Fri Jun  4 21:57:33 2021

Wall Time:        0.74 seconds

                                                       Time (seconds)
Module                                       User      System        Wall        Calls

--------------------------------------------------------------------------------------

**************************************************************************************

Host: fedora

Timers On : Fri Jun  4 21:57:47 2021
Timers Off: Fri Jun  4 21:57:47 2021

Wall Time:        0.51 seconds

                                                       Time (seconds)
Module                                       User      System        Wall        Calls

--------------------------------------------------------------------------------------

**************************************************************************************

Host: fedora

Timers On : Fri Jun  4 22:02:40 2021
Timers Off: Fri Jun  4 22:02:40 2021

Wall Time:        0.52 seconds

                                                       Time (seconds)
Module                                       User      System        Wall        Calls

--------------------------------------------------------------------------------------

**************************************************************************************

Host: fedora

Timers On : Fri Jun  4 22:03:44 2021
Timers Off: Fri Jun  4 22:03:45 2021

Wall Time:        0.55 seconds

                                                       Time (seconds)
Module                                       User      System        Wall        Calls

--------------------------------------------------------------------------------------

**************************************************************************************

Host: fedora

Timers On : Fri Jun  4 22:03:53 2021
Timers Off: Fri Jun  4 22:03:53 2021

Wall Time:        0.53 seconds

                                                       Time (seconds)
Module                                       User      System        Wall        Calls

--------------------------------------------------------------------------------------

**************************************************************************************

Host: fedora

Timers On : Fri Jun  4 22:04:28 2021
Timers Off: Fri Jun  4 22:04:29 2021

Wall Time:        0.52 seconds

                                                       Time (seconds)
Module                                       User      System        Wall        Calls

--------------------------------------------------------------------------------------

**************************************************************************************

Host: fedora

Timers On : Fri Jun  4 22:12:51 2021
Timers Off: Fri Jun  4 22:12:51 2021

Wall Time:        0.91 seconds

                                                       Time (seconds)
Module                                       User      System        Wall        Calls

--------------------------------------------------------------------------------------

**************************************************************************************

Host: fedora

Timers On : Fri Jun  4 22:13:50 2021
Timers Off: Fri Jun  4 22:13:51 2021

Wall Time:        0.90 seconds

                                                       Time (seconds)
Module                                       User      System        Wall        Calls

--------------------------------------------------------------------------------------

**************************************************************************************

Host: fedora

Timers On : Fri Jun  4 22:15:08 2021
Timers Off: Fri Jun  4 22:15:09 2021

Wall Time:        0.83 seconds

                                                       Time (seconds)
Module                                       User      System        Wall        Calls

--------------------------------------------------------------------------------------

**************************************************************************************

Host: fedora

Timers On : Fri Jun  4 22:15:29 2021
Timers Off: Fri Jun  4 22:15:30 2021

Wall Time:        0.85 seconds

                                                       Time (seconds)
Module                                       User      System        Wall        Calls

--------------------------------------------------------------------------------------

**************************************************************************************

Host: fedora

Timers On : Fri Jun  4 22:16:25 2021
Timers Off: Fri Jun  4 22:16:25 2021

Wall Time:        0.53 seconds

                                                       Time (seconds)
Module                                       User      System        Wall        Calls

--------------------------------------------------------------------------------------

**************************************************************************************

Host: fedora

Timers On : Fri Jun  4 22:16:42 2021
Timers Off: Fri Jun  4 22:16:43 2021

Wall Time:        0.60 seconds

                                                       Time (seconds)
Module                                       User      System        Wall        Calls

--------------------------------------------------------------------------------------

**************************************************************************************

Host: fedora

Timers On : Fri Jun  4 22:19:03 2021
Timers Off: Fri Jun  4 22:19:04 2021

Wall Time:        0.56 seconds

                                                       Time (seconds)
Module                                       User      System        Wall        Calls

--------------------------------------------------------------------------------------

**************************************************************************************

Host: fedora

Timers On : Fri Jun  4 22:19:15 2021
Timers Off: Fri Jun  4 22:19:17 2021

Wall Time:        1.20 seconds

                                                       Time (seconds)
Module                                       User      System        Wall        Calls

--------------------------------------------------------------------------------------

**************************************************************************************

Host: fedora

Timers On : Fri Jun  4 22:20:43 2021
Timers Off: Fri Jun  4 22:20:44 2021

Wall Time:        0.57 seconds

                                                       Time (seconds)
Module                                       User      System        Wall        Calls

--------------------------------------------------------------------------------------

**************************************************************************************

Host: fedora

Timers On : Fri Jun  4 22:27:46 2021
Timers Off: Fri Jun  4 22:27:46 2021

Wall Time:        0.58 seconds

                                                       Time (seconds)
Module                                       User      System        Wall        Calls

--------------------------------------------------------------------------------------

**************************************************************************************

Host: fedora

Timers On : Fri Jun  4 22:30:27 2021
Timers Off: Fri Jun  4 22:30:28 2021

Wall Time:        0.57 seconds

                                                       Time (seconds)
Module                                       User      System        Wall        Calls

--------------------------------------------------------------------------------------

**************************************************************************************

Host: fedora

Timers On : Fri Jun  4 22:30:46 2021
Timers Off: Fri Jun  4 22:30:47 2021

Wall Time:        0.59 seconds

                                                       Time (seconds)
Module                                       User      System        Wall        Calls

--------------------------------------------------------------------------------------

**************************************************************************************

Host: fedora

Timers On : Fri Jun  4 22:31:09 2021
Timers Off: Fri Jun  4 22:31:10 2021

Wall Time:        0.63 seconds

                                                       Time (seconds)
Module                                       User      System        Wall        Calls

--------------------------------------------------------------------------------------

**************************************************************************************

Host: fedora

Timers On : Fri Jun  4 22:35:53 2021
Timers Off: Fri Jun  4 22:35:54 2021

Wall Time:        0.83 seconds

                                                       Time (seconds)
Module                                       User      System        Wall        Calls

--------------------------------------------------------------------------------------

**************************************************************************************

Host: fedora

Timers On : Fri Jun  4 22:36:06 2021
Timers Off: Fri Jun  4 22:36:07 2021

Wall Time:        0.60 seconds

                                                       Time (seconds)
Module                                       User      System        Wall        Calls

--------------------------------------------------------------------------------------

**************************************************************************************

Host: fedora

Timers On : Fri Jun  4 22:36:22 2021
Timers Off: Fri Jun  4 22:36:23 2021

Wall Time:        0.60 seconds

                                                       Time (seconds)
Module                                       User      System        Wall        Calls

--------------------------------------------------------------------------------------

**************************************************************************************

Host: fedora

Timers On : Fri Jun  4 22:41:27 2021
Timers Off: Fri Jun  4 22:41:28 2021

Wall Time:        0.86 seconds

                                                       Time (seconds)
Module                                       User      System        Wall        Calls

--------------------------------------------------------------------------------------

**************************************************************************************

Host: fedora

Timers On : Fri Jun  4 22:41:50 2021
Timers Off: Fri Jun  4 22:41:51 2021

Wall Time:        0.85 seconds

                                                       Time (seconds)
Module                                       User      System        Wall        Calls

--------------------------------------------------------------------------------------

**************************************************************************************

Host: fedora

Timers On : Fri Jun  4 22:42:11 2021
Timers Off: Fri Jun  4 22:42:12 2021

Wall Time:        0.96 seconds

                                                       Time (seconds)
Module                                       User      System        Wall        Calls

--------------------------------------------------------------------------------------

**************************************************************************************

Host: fedora

Timers On : Fri Jun  4 22:43:11 2021
Timers Off: Fri Jun  4 22:43:12 2021

Wall Time:        0.61 seconds

                                                       Time (seconds)
Module                                       User      System        Wall        Calls

--------------------------------------------------------------------------------------

**************************************************************************************

Host: fedora

Timers On : Fri Jun  4 22:44:11 2021
Timers Off: Fri Jun  4 22:44:12 2021

Wall Time:        0.63 seconds

                                                       Time (seconds)
Module                                       User      System        Wall        Calls

--------------------------------------------------------------------------------------

**************************************************************************************

Host: fedora

Timers On : Fri Jun  4 22:46:14 2021
Timers Off: Fri Jun  4 22:46:15 2021

Wall Time:        0.73 seconds

                                                       Time (seconds)
Module                                       User      System        Wall        Calls

--------------------------------------------------------------------------------------

**************************************************************************************

Host: fedora

Timers On : Fri Jun  4 22:46:30 2021
Timers Off: Fri Jun  4 22:46:30 2021

Wall Time:        0.75 seconds

                                                       Time (seconds)
Module                                       User      System        Wall        Calls

--------------------------------------------------------------------------------------

**************************************************************************************

Host: fedora

Timers On : Fri Jun  4 22:46:41 2021
Timers Off: Fri Jun  4 22:46:41 2021

Wall Time:        0.95 seconds

                                                       Time (seconds)
Module                                       User      System        Wall        Calls

--------------------------------------------------------------------------------------

**************************************************************************************

Host: fedora

Timers On : Fri Jun  4 22:48:59 2021
Timers Off: Fri Jun  4 22:49:00 2021

Wall Time:        1.19 seconds

                                                       Time (seconds)
Module                                       User      System        Wall        Calls

--------------------------------------------------------------------------------------

**************************************************************************************

Host: fedora

Timers On : Fri Jun  4 22:49:11 2021
Timers Off: Fri Jun  4 22:49:12 2021

Wall Time:        1.16 seconds

                                                       Time (seconds)
Module                                       User      System        Wall        Calls

--------------------------------------------------------------------------------------

**************************************************************************************

Host: fedora

Timers On : Fri Jun  4 22:49:47 2021
Timers Off: Fri Jun  4 22:49:48 2021

Wall Time:        1.18 seconds

                                                       Time (seconds)
Module                                       User      System        Wall        Calls

--------------------------------------------------------------------------------------

**************************************************************************************

Host: fedora

Timers On : Fri Jun  4 22:49:58 2021
Timers Off: Fri Jun  4 22:50:00 2021

Wall Time:        2.11 seconds

                                                       Time (seconds)
Module                                       User      System        Wall        Calls

--------------------------------------------------------------------------------------

**************************************************************************************

Host: fedora

Timers On : Fri Jun  4 22:54:52 2021
Timers Off: Fri Jun  4 22:54:54 2021

Wall Time:        1.98 seconds

                                                       Time (seconds)
Module                                       User      System        Wall        Calls

--------------------------------------------------------------------------------------

**************************************************************************************

Host: fedora

Timers On : Fri Jun  4 22:55:44 2021
Timers Off: Fri Jun  4 22:55:46 2021

Wall Time:        2.09 seconds

                                                       Time (seconds)
Module                                       User      System        Wall        Calls

--------------------------------------------------------------------------------------

**************************************************************************************

Host: fedora

Timers On : Fri Jun  4 22:56:23 2021
Timers Off: Fri Jun  4 22:56:26 2021

Wall Time:        2.10 seconds

                                                       Time (seconds)
Module                                       User      System        Wall        Calls

--------------------------------------------------------------------------------------

**************************************************************************************

Host: fedora

Timers On : Fri Jun  4 22:56:58 2021
Timers Off: Fri Jun  4 22:57:06 2021

Wall Time:        8.25 seconds

                                                       Time (seconds)
Module                                       User      System        Wall        Calls

--------------------------------------------------------------------------------------

**************************************************************************************

Host: fedora

Timers On : Fri Jun  4 23:01:06 2021
Timers Off: Fri Jun  4 23:01:14 2021

Wall Time:        8.44 seconds

                                                       Time (seconds)
Module                                       User      System        Wall        Calls

--------------------------------------------------------------------------------------

**************************************************************************************

Host: fedora

Timers On : Fri Jun  4 23:01:50 2021
Timers Off: Fri Jun  4 23:01:59 2021

Wall Time:        8.44 seconds

                                                       Time (seconds)
Module                                       User      System        Wall        Calls

--------------------------------------------------------------------------------------

**************************************************************************************

Host: fedora

Timers On : Fri Jun  4 23:02:15 2021
Timers Off: Fri Jun  4 23:02:23 2021

Wall Time:        8.86 seconds

                                                       Time (seconds)
Module                                       User      System        Wall        Calls

--------------------------------------------------------------------------------------

**************************************************************************************

Host: fedora

Timers On : Fri Jun  4 23:05:46 2021
Timers Off: Fri Jun  4 23:05:55 2021

Wall Time:        8.48 seconds

                                                       Time (seconds)
Module                                       User      System        Wall        Calls

--------------------------------------------------------------------------------------

**************************************************************************************

Host: fedora

Timers On : Fri Jun  4 23:07:45 2021
Timers Off: Fri Jun  4 23:07:54 2021

Wall Time:        8.82 seconds

                                                       Time (seconds)
Module                                       User      System        Wall        Calls

--------------------------------------------------------------------------------------

**************************************************************************************

Host: fedora

Timers On : Fri Jun  4 23:13:33 2021
Timers Off: Fri Jun  4 23:13:41 2021

Wall Time:        8.58 seconds

                                                       Time (seconds)
Module                                       User      System        Wall        Calls

--------------------------------------------------------------------------------------

**************************************************************************************

Host: fedora

Timers On : Fri Jun  4 23:15:18 2021
Timers Off: Fri Jun  4 23:15:27 2021

Wall Time:        8.98 seconds

                                                       Time (seconds)
Module                                       User      System        Wall        Calls

--------------------------------------------------------------------------------------

**************************************************************************************

Host: fedora

Timers On : Fri Jun  4 23:16:21 2021
Timers Off: Fri Jun  4 23:16:30 2021

Wall Time:        9.09 seconds

                                                       Time (seconds)
Module                                       User      System        Wall        Calls

--------------------------------------------------------------------------------------

**************************************************************************************

Host: fedora

Timers On : Fri Jun  4 23:21:17 2021
Timers Off: Fri Jun  4 23:21:25 2021

Wall Time:        8.53 seconds

                                                       Time (seconds)
Module                                       User      System        Wall        Calls

--------------------------------------------------------------------------------------

**************************************************************************************

Host: fedora

Timers On : Fri Jun  4 23:21:46 2021
Timers Off: Fri Jun  4 23:21:55 2021

Wall Time:        8.91 seconds

                                                       Time (seconds)
Module                                       User      System        Wall        Calls

--------------------------------------------------------------------------------------

**************************************************************************************

Host: fedora

Timers On : Fri Jun  4 23:22:26 2021
Timers Off: Fri Jun  4 23:22:35 2021

Wall Time:        9.31 seconds

                                                       Time (seconds)
Module                                       User      System        Wall        Calls

--------------------------------------------------------------------------------------

**************************************************************************************

Host: fedora

Timers On : Fri Jun  4 23:30:21 2021
Timers Off: Fri Jun  4 23:30:32 2021

Wall Time:       10.98 seconds

                                                       Time (seconds)
Module                                       User      System        Wall        Calls

--------------------------------------------------------------------------------------

**************************************************************************************

Host: fedora

Timers On : Fri Jun  4 23:31:09 2021
Timers Off: Fri Jun  4 23:31:19 2021

Wall Time:        9.41 seconds

                                                       Time (seconds)
Module                                       User      System        Wall        Calls

--------------------------------------------------------------------------------------

**************************************************************************************

Host: fedora

Timers On : Fri Jun  4 23:32:03 2021
Timers Off: Fri Jun  4 23:32:12 2021

Wall Time:        8.95 seconds

                                                       Time (seconds)
Module                                       User      System        Wall        Calls

--------------------------------------------------------------------------------------

**************************************************************************************

Host: fedora

Timers On : Fri Jun  4 23:33:34 2021
Timers Off: Fri Jun  4 23:33:39 2021

Wall Time:        4.73 seconds

                                                       Time (seconds)
Module                                       User      System        Wall        Calls

--------------------------------------------------------------------------------------

**************************************************************************************

Host: fedora

Timers On : Fri Jun  4 23:33:58 2021
Timers Off: Fri Jun  4 23:34:02 2021

Wall Time:        4.00 seconds

                                                       Time (seconds)
Module                                       User      System        Wall        Calls

--------------------------------------------------------------------------------------

**************************************************************************************

Host: fedora

Timers On : Fri Jun  4 23:44:01 2021
Timers Off: Fri Jun  4 23:44:05 2021

Wall Time:        4.19 seconds

                                                       Time (seconds)
Module                                       User      System        Wall        Calls

--------------------------------------------------------------------------------------

**************************************************************************************

Host: fedora

Timers On : Fri Jun  4 23:52:00 2021
Timers Off: Fri Jun  4 23:52:05 2021

Wall Time:        4.57 seconds

                                                       Time (seconds)
Module                                       User      System        Wall        Calls

--------------------------------------------------------------------------------------

**************************************************************************************

Host: fedora

Timers On : Fri Jun  4 23:53:27 2021
Timers Off: Fri Jun  4 23:53:32 2021

Wall Time:        4.68 seconds

                                                       Time (seconds)
Module                                       User      System        Wall        Calls

--------------------------------------------------------------------------------------

**************************************************************************************

Host: fedora

Timers On : Sat Jun  5 00:01:41 2021
Timers Off: Sat Jun  5 00:01:46 2021

Wall Time:        4.91 seconds

                                                       Time (seconds)
Module                                       User      System        Wall        Calls

--------------------------------------------------------------------------------------

**************************************************************************************

Host: fedora

Timers On : Sat Jun  5 00:02:56 2021
Timers Off: Sat Jun  5 00:03:00 2021

Wall Time:        4.95 seconds

                                                       Time (seconds)
Module                                       User      System        Wall        Calls

--------------------------------------------------------------------------------------

**************************************************************************************

Host: fedora

Timers On : Sat Jun  5 00:03:40 2021
Timers Off: Sat Jun  5 00:03:45 2021

Wall Time:        5.02 seconds

                                                       Time (seconds)
Module                                       User      System        Wall        Calls

--------------------------------------------------------------------------------------

**************************************************************************************

Host: fedora

Timers On : Sat Jun  5 00:04:18 2021
Timers Off: Sat Jun  5 00:04:26 2021

Wall Time:        7.53 seconds

                                                       Time (seconds)
Module                                       User      System        Wall        Calls

--------------------------------------------------------------------------------------

**************************************************************************************

Host: fedora

Timers On : Sat Jun  5 00:06:18 2021
Timers Off: Sat Jun  5 00:06:24 2021

Wall Time:        5.49 seconds

                                                       Time (seconds)
Module                                       User      System        Wall        Calls

--------------------------------------------------------------------------------------

**************************************************************************************

Host: fedora

Timers On : Sat Jun  5 00:15:00 2021
Timers Off: Sat Jun  5 00:15:08 2021

Wall Time:        8.21 seconds

                                                       Time (seconds)
Module                                       User      System        Wall        Calls

--------------------------------------------------------------------------------------

**************************************************************************************

Host: fedora

Timers On : Sat Jun  5 00:16:33 2021
Timers Off: Sat Jun  5 00:16:40 2021

Wall Time:        6.97 seconds

                                                       Time (seconds)
Module                                       User      System        Wall        Calls

--------------------------------------------------------------------------------------

**************************************************************************************

Host: fedora

Timers On : Sat Jun  5 00:28:46 2021
Timers Off: Sat Jun  5 00:28:53 2021

Wall Time:        7.31 seconds

                                                       Time (seconds)
Module                                       User      System        Wall        Calls

--------------------------------------------------------------------------------------

**************************************************************************************

Host: fedora

Timers On : Sat Jun  5 00:32:32 2021
Timers Off: Sat Jun  5 00:32:39 2021

Wall Time:        7.19 seconds

                                                       Time (seconds)
Module                                       User      System        Wall        Calls

--------------------------------------------------------------------------------------

**************************************************************************************

Host: fedora

Timers On : Sat Jun  5 00:42:36 2021
Timers Off: Sat Jun  5 00:42:43 2021

Wall Time:        7.56 seconds

                                                       Time (seconds)
Module                                       User      System        Wall        Calls

--------------------------------------------------------------------------------------

**************************************************************************************

Host: fedora

Timers On : Sat Jun  5 00:45:31 2021
Timers Off: Sat Jun  5 00:45:39 2021

Wall Time:        7.91 seconds

                                                       Time (seconds)
Module                                       User      System        Wall        Calls

--------------------------------------------------------------------------------------

**************************************************************************************

Host: fedora

Timers On : Sat Jun  5 01:01:34 2021
Timers Off: Sat Jun  5 01:01:44 2021

Wall Time:        9.38 seconds

                                                       Time (seconds)
Module                                       User      System        Wall        Calls

--------------------------------------------------------------------------------------

**************************************************************************************

Host: fedora

Timers On : Sat Jun  5 01:04:41 2021
Timers Off: Sat Jun  5 01:04:50 2021

Wall Time:        8.87 seconds

                                                       Time (seconds)
Module                                       User      System        Wall        Calls

--------------------------------------------------------------------------------------

**************************************************************************************

Host: fedora

Timers On : Sat Jun  5 01:10:57 2021
Timers Off: Sat Jun  5 01:11:06 2021

Wall Time:        8.88 seconds

                                                       Time (seconds)
Module                                       User      System        Wall        Calls

--------------------------------------------------------------------------------------

**************************************************************************************

Host: fedora

Timers On : Sat Jun  5 01:11:26 2021
Timers Off: Sat Jun  5 01:11:35 2021

Wall Time:        9.38 seconds

                                                       Time (seconds)
Module                                       User      System        Wall        Calls

--------------------------------------------------------------------------------------

**************************************************************************************

Host: fedora

Timers On : Sat Jun  5 01:16:56 2021
Timers Off: Sat Jun  5 01:17:06 2021

Wall Time:        9.85 seconds

                                                       Time (seconds)
Module                                       User      System        Wall        Calls

--------------------------------------------------------------------------------------

**************************************************************************************

Host: fedora

Timers On : Sat Jun  5 01:18:46 2021
Timers Off: Sat Jun  5 01:18:55 2021

Wall Time:        9.59 seconds

                                                       Time (seconds)
Module                                       User      System        Wall        Calls

--------------------------------------------------------------------------------------

**************************************************************************************

Host: fedora

Timers On : Sat Jun  5 01:19:48 2021
Timers Off: Sat Jun  5 01:19:58 2021

Wall Time:        9.67 seconds

                                                       Time (seconds)
Module                                       User      System        Wall        Calls

--------------------------------------------------------------------------------------

**************************************************************************************

Host: fedora

Timers On : Sat Jun  5 01:43:11 2021
Timers Off: Sat Jun  5 01:43:21 2021

Wall Time:        9.55 seconds

                                                       Time (seconds)
Module                                       User      System        Wall        Calls

--------------------------------------------------------------------------------------

**************************************************************************************

Host: fedora

Timers On : Sat Jun  5 01:44:50 2021
Timers Off: Sat Jun  5 01:45:00 2021

Wall Time:        9.47 seconds

                                                       Time (seconds)
Module                                       User      System        Wall        Calls

--------------------------------------------------------------------------------------

**************************************************************************************

Host: fedora

Timers On : Sat Jun  5 01:54:45 2021
Timers Off: Sat Jun  5 01:54:55 2021

Wall Time:       10.45 seconds

                                                       Time (seconds)
Module                                       User      System        Wall        Calls

--------------------------------------------------------------------------------------

**************************************************************************************

Host: fedora

Timers On : Sat Jun  5 01:57:15 2021
Timers Off: Sat Jun  5 01:57:26 2021

Wall Time:       11.10 seconds

                                                       Time (seconds)
Module                                       User      System        Wall        Calls

--------------------------------------------------------------------------------------

**************************************************************************************

Host: fedora

Timers On : Sat Jun  5 02:00:35 2021
Timers Off: Sat Jun  5 02:00:46 2021

Wall Time:       11.36 seconds

                                                       Time (seconds)
Module                                       User      System        Wall        Calls

--------------------------------------------------------------------------------------

**************************************************************************************

Host: fedora

Timers On : Sat Jun  5 02:02:30 2021
Timers Off: Sat Jun  5 02:02:40 2021

Wall Time:       10.72 seconds

                                                       Time (seconds)
Module                                       User      System        Wall        Calls

--------------------------------------------------------------------------------------

**************************************************************************************

Host: fedora

Timers On : Sat Jun  5 02:03:15 2021
Timers Off: Sat Jun  5 02:03:26 2021

Wall Time:       10.60 seconds

                                                       Time (seconds)
Module                                       User      System        Wall        Calls

--------------------------------------------------------------------------------------

**************************************************************************************

Host: fedora

Timers On : Sat Jun  5 02:03:51 2021
Timers Off: Sat Jun  5 02:04:01 2021

Wall Time:       10.69 seconds

                                                       Time (seconds)
Module                                       User      System        Wall        Calls

--------------------------------------------------------------------------------------

**************************************************************************************

Host: fedora

Timers On : Sat Jun  5 02:07:33 2021
Timers Off: Sat Jun  5 02:07:44 2021

Wall Time:       10.99 seconds

                                                       Time (seconds)
Module                                       User      System        Wall        Calls

--------------------------------------------------------------------------------------

**************************************************************************************

Host: fedora

Timers On : Sat Jun  5 02:08:33 2021
Timers Off: Sat Jun  5 02:08:44 2021

Wall Time:       11.23 seconds

                                                       Time (seconds)
Module                                       User      System        Wall        Calls

--------------------------------------------------------------------------------------

**************************************************************************************

Host: fedora

Timers On : Sat Jun  5 02:09:09 2021
Timers Off: Sat Jun  5 02:09:20 2021

Wall Time:       10.84 seconds

                                                       Time (seconds)
Module                                       User      System        Wall        Calls

--------------------------------------------------------------------------------------

**************************************************************************************

Host: fedora

Timers On : Sat Jun  5 02:14:08 2021
Timers Off: Sat Jun  5 02:14:19 2021

Wall Time:       11.11 seconds

                                                       Time (seconds)
Module                                       User      System        Wall        Calls

--------------------------------------------------------------------------------------

**************************************************************************************

Host: fedora

Timers On : Sat Jun  5 02:15:43 2021
Timers Off: Sat Jun  5 02:15:55 2021

Wall Time:       11.86 seconds

                                                       Time (seconds)
Module                                       User      System        Wall        Calls

--------------------------------------------------------------------------------------

**************************************************************************************

Host: fedora

Timers On : Sat Jun  5 02:24:51 2021
Timers Off: Sat Jun  5 02:25:03 2021

Wall Time:       12.40 seconds

                                                       Time (seconds)
Module                                       User      System        Wall        Calls

--------------------------------------------------------------------------------------

**************************************************************************************

Host: fedora

Timers On : Sat Jun  5 02:32:13 2021
Timers Off: Sat Jun  5 02:32:25 2021

Wall Time:       11.83 seconds

                                                       Time (seconds)
Module                                       User      System        Wall        Calls

--------------------------------------------------------------------------------------

**************************************************************************************

Host: fedora

Timers On : Sat Jun  5 02:33:10 2021
Timers Off: Sat Jun  5 02:33:22 2021

Wall Time:       12.09 seconds

                                                       Time (seconds)
Module                                       User      System        Wall        Calls

--------------------------------------------------------------------------------------

**************************************************************************************

Host: fedora

Timers On : Sat Jun  5 02:45:00 2021
Timers Off: Sat Jun  5 02:45:12 2021

Wall Time:       12.44 seconds

                                                       Time (seconds)
Module                                       User      System        Wall        Calls

--------------------------------------------------------------------------------------

**************************************************************************************

Host: fedora

Timers On : Sat Jun  5 02:45:35 2021
Timers Off: Sat Jun  5 02:45:47 2021

Wall Time:       12.14 seconds

                                                       Time (seconds)
Module                                       User      System        Wall        Calls

--------------------------------------------------------------------------------------

**************************************************************************************

Host: fedora

Timers On : Sat Jun  5 02:58:12 2021
Timers Off: Sat Jun  5 02:58:24 2021

Wall Time:       12.29 seconds

                                                       Time (seconds)
Module                                       User      System        Wall        Calls

--------------------------------------------------------------------------------------

**************************************************************************************

Host: fedora

Timers On : Sat Jun  5 03:02:48 2021
Timers Off: Sat Jun  5 03:03:02 2021

Wall Time:       13.78 seconds

                                                       Time (seconds)
Module                                       User      System        Wall        Calls

--------------------------------------------------------------------------------------

**************************************************************************************

Host: fedora

Timers On : Sat Jun  5 03:05:21 2021
Timers Off: Sat Jun  5 03:05:34 2021

Wall Time:       12.89 seconds

                                                       Time (seconds)
Module                                       User      System        Wall        Calls

--------------------------------------------------------------------------------------

**************************************************************************************

Host: fedora

Timers On : Sat Jun  5 03:06:38 2021
Timers Off: Sat Jun  5 03:06:50 2021

Wall Time:       12.37 seconds

                                                       Time (seconds)
Module                                       User      System        Wall        Calls

--------------------------------------------------------------------------------------

**************************************************************************************

Host: fedora

Timers On : Sat Jun  5 03:07:39 2021
Timers Off: Sat Jun  5 03:07:52 2021

Wall Time:       12.42 seconds

                                                       Time (seconds)
Module                                       User      System        Wall        Calls

--------------------------------------------------------------------------------------

**************************************************************************************

Host: fedora

Timers On : Sat Jun  5 03:08:49 2021
Timers Off: Sat Jun  5 03:09:03 2021

Wall Time:       13.56 seconds

                                                       Time (seconds)
Module                                       User      System        Wall        Calls

--------------------------------------------------------------------------------------

**************************************************************************************

Host: fedora

Timers On : Sat Jun  5 03:13:58 2021
Timers Off: Sat Jun  5 03:14:16 2021

Wall Time:       18.09 seconds

                                                       Time (seconds)
Module                                       User      System        Wall        Calls

--------------------------------------------------------------------------------------

**************************************************************************************

Host: fedora

Timers On : Sat Jun  5 03:15:08 2021
Timers Off: Sat Jun  5 03:15:19 2021

Wall Time:       11.66 seconds

                                                       Time (seconds)
Module                                       User      System        Wall        Calls

--------------------------------------------------------------------------------------

**************************************************************************************

Host: fedora

Timers On : Sat Jun  5 09:18:25 2021
Timers Off: Sat Jun  5 09:18:44 2021

Wall Time:       18.67 seconds

                                                       Time (seconds)
Module                                       User      System        Wall        Calls

--------------------------------------------------------------------------------------

**************************************************************************************

Host: fedora

Timers On : Sat Jun  5 09:19:58 2021
Timers Off: Sat Jun  5 09:20:16 2021

Wall Time:       18.38 seconds

                                                       Time (seconds)
Module                                       User      System        Wall        Calls

--------------------------------------------------------------------------------------

**************************************************************************************

Host: fedora

Timers On : Sat Jun  5 09:21:12 2021
Timers Off: Sat Jun  5 09:21:32 2021

Wall Time:       20.23 seconds

                                                       Time (seconds)
Module                                       User      System        Wall        Calls

--------------------------------------------------------------------------------------

**************************************************************************************

Host: fedora

Timers On : Sat Jun  5 09:25:17 2021
Timers Off: Sat Jun  5 09:25:36 2021

Wall Time:       19.33 seconds

                                                       Time (seconds)
Module                                       User      System        Wall        Calls

--------------------------------------------------------------------------------------

**************************************************************************************

Host: fedora

Timers On : Sat Jun  5 09:30:52 2021
Timers Off: Sat Jun  5 09:31:11 2021

Wall Time:       19.69 seconds

                                                       Time (seconds)
Module                                       User      System        Wall        Calls

--------------------------------------------------------------------------------------

**************************************************************************************

Host: fedora

Timers On : Sat Jun  5 09:32:31 2021
Timers Off: Sat Jun  5 09:32:51 2021

Wall Time:       19.55 seconds

                                                       Time (seconds)
Module                                       User      System        Wall        Calls

--------------------------------------------------------------------------------------

**************************************************************************************

Host: fedora

Timers On : Sat Jun  5 09:36:26 2021
Timers Off: Sat Jun  5 09:36:38 2021

Wall Time:       12.17 seconds

                                                       Time (seconds)
Module                                       User      System        Wall        Calls

--------------------------------------------------------------------------------------

**************************************************************************************

Host: fedora

Timers On : Sat Jun  5 09:37:29 2021
Timers Off: Sat Jun  5 09:37:41 2021

Wall Time:       11.87 seconds

                                                       Time (seconds)
Module                                       User      System        Wall        Calls

--------------------------------------------------------------------------------------

**************************************************************************************

Host: fedora

Timers On : Sat Jun  5 09:38:14 2021
Timers Off: Sat Jun  5 09:38:33 2021

Wall Time:       18.54 seconds

                                                       Time (seconds)
Module                                       User      System        Wall        Calls

--------------------------------------------------------------------------------------

**************************************************************************************

Host: fedora

Timers On : Sat Jun  5 09:39:45 2021
Timers Off: Sat Jun  5 09:40:05 2021

Wall Time:       19.25 seconds

                                                       Time (seconds)
Module                                       User      System        Wall        Calls

--------------------------------------------------------------------------------------

**************************************************************************************

Host: fedora

Timers On : Sat Jun  5 09:41:51 2021
Timers Off: Sat Jun  5 09:42:11 2021

Wall Time:       20.15 seconds

                                                       Time (seconds)
Module                                       User      System        Wall        Calls

--------------------------------------------------------------------------------------

**************************************************************************************

Host: fedora

Timers On : Sat Jun  5 09:54:06 2021
Timers Off: Sat Jun  5 09:54:26 2021

Wall Time:       19.68 seconds

                                                       Time (seconds)
Module                                       User      System        Wall        Calls

--------------------------------------------------------------------------------------

**************************************************************************************

Host: fedora

Timers On : Sat Jun  5 09:55:28 2021
Timers Off: Sat Jun  5 09:55:37 2021

Wall Time:        9.11 seconds

                                                       Time (seconds)
Module                                       User      System        Wall        Calls

--------------------------------------------------------------------------------------

**************************************************************************************

Host: fedora

Timers On : Sat Jun  5 09:56:08 2021
Timers Off: Sat Jun  5 09:56:17 2021

Wall Time:        9.16 seconds

                                                       Time (seconds)
Module                                       User      System        Wall        Calls

--------------------------------------------------------------------------------------

**************************************************************************************

Host: fedora

Timers On : Sat Jun  5 09:57:17 2021
Timers Off: Sat Jun  5 09:57:26 2021

Wall Time:        8.63 seconds

                                                       Time (seconds)
Module                                       User      System        Wall        Calls

--------------------------------------------------------------------------------------

**************************************************************************************

Host: fedora

Timers On : Sat Jun  5 09:58:25 2021
Timers Off: Sat Jun  5 09:58:39 2021

Wall Time:       13.84 seconds

                                                       Time (seconds)
Module                                       User      System        Wall        Calls

--------------------------------------------------------------------------------------

**************************************************************************************

Host: fedora

Timers On : Sat Jun  5 10:56:34 2021
Timers Off: Sat Jun  5 10:57:04 2021

Wall Time:       29.70 seconds

                                                       Time (seconds)
Module                                       User      System        Wall        Calls

--------------------------------------------------------------------------------------

**************************************************************************************

Host: fedora

Timers On : Sat Jun  5 11:01:13 2021
Timers Off: Sat Jun  5 11:01:22 2021

Wall Time:        9.03 seconds

                                                       Time (seconds)
Module                                       User      System        Wall        Calls

--------------------------------------------------------------------------------------

**************************************************************************************

Host: fedora

Timers On : Sat Jun  5 11:02:18 2021
Timers Off: Sat Jun  5 11:02:36 2021

Wall Time:       18.29 seconds

                                                       Time (seconds)
Module                                       User      System        Wall        Calls

--------------------------------------------------------------------------------------

**************************************************************************************

Host: fedora

Timers On : Sat Jun  5 11:04:52 2021
Timers Off: Sat Jun  5 11:05:01 2021

Wall Time:        8.38 seconds

                                                       Time (seconds)
Module                                       User      System        Wall        Calls

--------------------------------------------------------------------------------------

**************************************************************************************

Host: fedora

Timers On : Sat Jun  5 11:06:02 2021
Timers Off: Sat Jun  5 11:06:22 2021

Wall Time:       19.52 seconds

                                                       Time (seconds)
Module                                       User      System        Wall        Calls

--------------------------------------------------------------------------------------

**************************************************************************************

Host: fedora

Timers On : Sat Jun  5 11:18:39 2021
Timers Off: Sat Jun  5 11:18:47 2021

Wall Time:        7.64 seconds

                                                       Time (seconds)
Module                                       User      System        Wall        Calls

--------------------------------------------------------------------------------------

**************************************************************************************

Host: fedora

Timers On : Sat Jun  5 11:19:31 2021
Timers Off: Sat Jun  5 11:19:39 2021

Wall Time:        8.20 seconds

                                                       Time (seconds)
Module                                       User      System        Wall        Calls

--------------------------------------------------------------------------------------

**************************************************************************************

Host: fedora

Timers On : Sat Jun  5 11:20:43 2021
Timers Off: Sat Jun  5 11:21:23 2021

Wall Time:       39.38 seconds

                                                       Time (seconds)
Module                                       User      System        Wall        Calls

--------------------------------------------------------------------------------------

**************************************************************************************

Host: fedora

Timers On : Sat Jun  5 11:23:30 2021
Timers Off: Sat Jun  5 11:23:49 2021

Wall Time:       19.39 seconds

                                                       Time (seconds)
Module                                       User      System        Wall        Calls

--------------------------------------------------------------------------------------

**************************************************************************************

Host: fedora

Timers On : Sat Jun  5 11:24:42 2021
Timers Off: Sat Jun  5 11:25:02 2021

Wall Time:       20.60 seconds

                                                       Time (seconds)
Module                                       User      System        Wall        Calls

--------------------------------------------------------------------------------------

**************************************************************************************

Host: fedora

Timers On : Sat Jun  5 13:29:34 2021
Timers Off: Sat Jun  5 13:29:47 2021

Wall Time:       12.65 seconds

                                                       Time (seconds)
Module                                       User      System        Wall        Calls

--------------------------------------------------------------------------------------

**************************************************************************************

Host: fedora

Timers On : Sat Jun  5 13:33:23 2021
Timers Off: Sat Jun  5 13:33:37 2021

Wall Time:       14.41 seconds

                                                       Time (seconds)
Module                                       User      System        Wall        Calls

--------------------------------------------------------------------------------------

**************************************************************************************

Host: fedora

Timers On : Sat Jun  5 13:44:29 2021
Timers Off: Sat Jun  5 13:44:43 2021

Wall Time:       14.47 seconds

                                                       Time (seconds)
Module                                       User      System        Wall        Calls

--------------------------------------------------------------------------------------

**************************************************************************************

Host: fedora

Timers On : Sat Jun  5 13:47:46 2021
Timers Off: Sat Jun  5 13:47:48 2021

Wall Time:        2.11 seconds

                                                       Time (seconds)
Module                                       User      System        Wall        Calls

--------------------------------------------------------------------------------------

**************************************************************************************

Host: fedora

Timers On : Sat Jun  5 13:48:37 2021
Timers Off: Sat Jun  5 13:48:49 2021

Wall Time:       12.36 seconds

                                                       Time (seconds)
Module                                       User      System        Wall        Calls

--------------------------------------------------------------------------------------

**************************************************************************************

Host: fedora

Timers On : Sat Jun  5 13:49:10 2021
Timers Off: Sat Jun  5 13:49:12 2021

Wall Time:        2.08 seconds

                                                       Time (seconds)
Module                                       User      System        Wall        Calls

--------------------------------------------------------------------------------------

**************************************************************************************

Host: fedora

Timers On : Sat Jun  5 13:50:00 2021
Timers Off: Sat Jun  5 13:50:12 2021

Wall Time:       12.09 seconds

                                                       Time (seconds)
Module                                       User      System        Wall        Calls

--------------------------------------------------------------------------------------

**************************************************************************************

Host: fedora

Timers On : Sat Jun  5 13:54:52 2021
Timers Off: Sat Jun  5 13:55:05 2021

Wall Time:       13.52 seconds

                                                       Time (seconds)
Module                                       User      System        Wall        Calls

--------------------------------------------------------------------------------------

**************************************************************************************

Host: fedora

Timers On : Sat Jun  5 13:59:49 2021
Timers Off: Sat Jun  5 14:00:02 2021

Wall Time:       13.30 seconds

                                                       Time (seconds)
Module                                       User      System        Wall        Calls

--------------------------------------------------------------------------------------

**************************************************************************************

Host: fedora

Timers On : Sat Jun  5 14:04:49 2021
Timers Off: Sat Jun  5 14:05:02 2021

Wall Time:       13.15 seconds

                                                       Time (seconds)
Module                                       User      System        Wall        Calls

--------------------------------------------------------------------------------------

**************************************************************************************

Host: fedora

Timers On : Sat Jun  5 14:07:49 2021
Timers Off: Sat Jun  5 14:08:08 2021

Wall Time:       19.38 seconds

                                                       Time (seconds)
Module                                       User      System        Wall        Calls

--------------------------------------------------------------------------------------

**************************************************************************************

Host: fedora

Timers On : Sat Jun  5 14:10:16 2021
Timers Off: Sat Jun  5 14:10:31 2021

Wall Time:       14.22 seconds

                                                       Time (seconds)
Module                                       User      System        Wall        Calls

--------------------------------------------------------------------------------------

**************************************************************************************

Host: fedora

Timers On : Sat Jun  5 14:16:01 2021
Timers Off: Sat Jun  5 14:16:15 2021

Wall Time:       14.38 seconds

                                                       Time (seconds)
Module                                       User      System        Wall        Calls

--------------------------------------------------------------------------------------

**************************************************************************************

Host: fedora

Timers On : Sat Jun  5 14:21:21 2021
Timers Off: Sat Jun  5 14:21:33 2021

Wall Time:       11.54 seconds

                                                       Time (seconds)
Module                                       User      System        Wall        Calls

--------------------------------------------------------------------------------------

**************************************************************************************

Host: fedora

Timers On : Sat Jun  5 14:23:59 2021
Timers Off: Sat Jun  5 14:24:10 2021

Wall Time:       11.62 seconds

                                                       Time (seconds)
Module                                       User      System        Wall        Calls

--------------------------------------------------------------------------------------

**************************************************************************************

Host: fedora

Timers On : Sat Jun  5 14:25:32 2021
Timers Off: Sat Jun  5 14:25:44 2021

Wall Time:       11.43 seconds

                                                       Time (seconds)
Module                                       User      System        Wall        Calls

--------------------------------------------------------------------------------------

**************************************************************************************

Host: fedora

Timers On : Sat Jun  5 14:26:40 2021
Timers Off: Sat Jun  5 14:26:53 2021

Wall Time:       12.51 seconds

                                                       Time (seconds)
Module                                       User      System        Wall        Calls

--------------------------------------------------------------------------------------

**************************************************************************************

Host: fedora

Timers On : Sat Jun  5 14:42:05 2021
Timers Off: Sat Jun  5 14:42:18 2021

Wall Time:       12.59 seconds

                                                       Time (seconds)
Module                                       User      System        Wall        Calls

--------------------------------------------------------------------------------------

**************************************************************************************

Host: fedora

Timers On : Sat Jun  5 14:51:19 2021
Timers Off: Sat Jun  5 14:51:31 2021

Wall Time:       12.40 seconds

                                                       Time (seconds)
Module                                       User      System        Wall        Calls

--------------------------------------------------------------------------------------

**************************************************************************************

Host: fedora

Timers On : Sat Jun  5 14:55:32 2021
Timers Off: Sat Jun  5 14:55:45 2021

Wall Time:       13.31 seconds

                                                       Time (seconds)
Module                                       User      System        Wall        Calls

--------------------------------------------------------------------------------------

**************************************************************************************

Host: fedora

Timers On : Sat Jun  5 14:56:46 2021
Timers Off: Sat Jun  5 14:56:58 2021

Wall Time:       12.32 seconds

                                                       Time (seconds)
Module                                       User      System        Wall        Calls

--------------------------------------------------------------------------------------

**************************************************************************************

Host: fedora

Timers On : Sat Jun  5 14:58:08 2021
Timers Off: Sat Jun  5 14:58:21 2021

Wall Time:       13.19 seconds

                                                       Time (seconds)
Module                                       User      System        Wall        Calls

--------------------------------------------------------------------------------------

**************************************************************************************

Host: fedora

Timers On : Sat Jun  5 15:01:01 2021
Timers Off: Sat Jun  5 15:01:14 2021

Wall Time:       13.09 seconds

                                                       Time (seconds)
Module                                       User      System        Wall        Calls

--------------------------------------------------------------------------------------

**************************************************************************************

Host: fedora

Timers On : Sat Jun  5 15:02:46 2021
Timers Off: Sat Jun  5 15:02:59 2021

Wall Time:       13.58 seconds

                                                       Time (seconds)
Module                                       User      System        Wall        Calls

--------------------------------------------------------------------------------------

**************************************************************************************

Host: fedora

Timers On : Sat Jun  5 15:12:33 2021
Timers Off: Sat Jun  5 15:12:46 2021

Wall Time:       13.31 seconds

                                                       Time (seconds)
Module                                       User      System        Wall        Calls

--------------------------------------------------------------------------------------

**************************************************************************************

Host: fedora

Timers On : Sat Jun  5 15:14:25 2021
Timers Off: Sat Jun  5 15:14:40 2021

Wall Time:       15.51 seconds

                                                       Time (seconds)
Module                                       User      System        Wall        Calls

--------------------------------------------------------------------------------------

**************************************************************************************

Host: fedora

Timers On : Sat Jun  5 15:15:48 2021
Timers Off: Sat Jun  5 15:16:01 2021

Wall Time:       13.00 seconds

                                                       Time (seconds)
Module                                       User      System        Wall        Calls

--------------------------------------------------------------------------------------

[...]
Timers Off: Tue Jun  8 16:34:02 2021

Wall Time:       83.70 seconds

                                                       Time (seconds)
Module                                       User      System        Wall        Calls

--------------------------------------------------------------------------------------

**************************************************************************************

Host: fedora

Timers On : Tue Jun  8 16:36:05 2021
Timers Off: Tue Jun  8 16:37:30 2021

Wall Time:       84.52 seconds

                                                       Time (seconds)
Module                                       User      System        Wall        Calls

--------------------------------------------------------------------------------------

**************************************************************************************

Host: fedora

Timers On : Tue Jun  8 16:38:00 2021
Timers Off: Tue Jun  8 16:39:26 2021

Wall Time:       85.30 seconds

                                                       Time (seconds)
Module                                       User      System        Wall        Calls

--------------------------------------------------------------------------------------

**************************************************************************************

Host: fedora

Timers On : Tue Jun  8 16:42:30 2021
Timers Off: Tue Jun  8 16:43:26 2021

Wall Time:       56.09 seconds

                                                       Time (seconds)
Module                                       User      System        Wall        Calls

--------------------------------------------------------------------------------------

**************************************************************************************

Host: fedora

Timers On : Tue Jun  8 16:48:44 2021
Timers Off: Tue Jun  8 16:50:27 2021

Wall Time:      102.73 seconds

                                                       Time (seconds)
Module                                       User      System        Wall        Calls

--------------------------------------------------------------------------------------

**************************************************************************************

Host: fedora

Timers On : Tue Jun  8 16:54:40 2021
Timers Off: Tue Jun  8 16:56:38 2021

Wall Time:      117.74 seconds

                                                       Time (seconds)
Module                                       User      System        Wall        Calls

--------------------------------------------------------------------------------------

**************************************************************************************

Host: fedora

Timers On : Tue Jun  8 16:59:00 2021
Timers Off: Tue Jun  8 17:00:57 2021

Wall Time:      116.98 seconds

                                                       Time (seconds)
Module                                       User      System        Wall        Calls

--------------------------------------------------------------------------------------

**************************************************************************************

Host: fedora

Timers On : Tue Jun  8 17:01:56 2021
Timers Off: Tue Jun  8 17:03:45 2021

Wall Time:      109.56 seconds

                                                       Time (seconds)
Module                                       User      System        Wall        Calls

--------------------------------------------------------------------------------------

**************************************************************************************

Host: fedora

Timers On : Tue Jun  8 17:05:10 2021
Timers Off: Tue Jun  8 17:06:53 2021

Wall Time:      102.87 seconds

                                                       Time (seconds)
Module                                       User      System        Wall        Calls

--------------------------------------------------------------------------------------

**************************************************************************************

Host: fedora

Timers On : Tue Jun  8 17:10:48 2021
Timers Off: Tue Jun  8 17:13:00 2021

Wall Time:      131.44 seconds

                                                       Time (seconds)
Module                                       User      System        Wall        Calls

--------------------------------------------------------------------------------------

**************************************************************************************

Host: fedora

Timers On : Tue Jun  8 17:13:35 2021
Timers Off: Tue Jun  8 17:15:49 2021

Wall Time:      133.69 seconds

                                                       Time (seconds)
Module                                       User      System        Wall        Calls

--------------------------------------------------------------------------------------

**************************************************************************************

Host: fedora

Timers On : Tue Jun  8 17:21:40 2021
Timers Off: Tue Jun  8 17:23:54 2021

Wall Time:      133.92 seconds

                                                       Time (seconds)
Module                                       User      System        Wall        Calls

--------------------------------------------------------------------------------------

**************************************************************************************

Host: fedora

Timers On : Tue Jun  8 17:24:50 2021
Timers Off: Tue Jun  8 17:27:12 2021

Wall Time:      141.45 seconds

                                                       Time (seconds)
Module                                       User      System        Wall        Calls

--------------------------------------------------------------------------------------

**************************************************************************************

Host: fedora

Timers On : Tue Jun  8 17:44:11 2021
Timers Off: Tue Jun  8 17:46:17 2021

Wall Time:      126.03 seconds

                                                       Time (seconds)
Module                                       User      System        Wall        Calls

--------------------------------------------------------------------------------------

**************************************************************************************

Host: fedora

Timers On : Tue Jun  8 17:50:12 2021
Timers Off: Tue Jun  8 17:52:20 2021

Wall Time:      127.83 seconds

                                                       Time (seconds)
Module                                       User      System        Wall        Calls

--------------------------------------------------------------------------------------

**************************************************************************************

Host: fedora

Timers On : Tue Jun  8 17:55:49 2021
Timers Off: Tue Jun  8 17:58:16 2021

Wall Time:      146.41 seconds

                                                       Time (seconds)
Module                                       User      System        Wall        Calls

--------------------------------------------------------------------------------------

**************************************************************************************

Host: fedora

Timers On : Tue Jun  8 18:14:07 2021
Timers Off: Tue Jun  8 18:16:58 2021

Wall Time:      170.80 seconds

                                                       Time (seconds)
Module                                       User      System        Wall        Calls

--------------------------------------------------------------------------------------

**************************************************************************************

Host: fedora

Timers On : Tue Jun  8 18:19:52 2021
Timers Off: Tue Jun  8 18:23:14 2021

Wall Time:      202.74 seconds

                                                       Time (seconds)
Module                                       User      System        Wall        Calls

--------------------------------------------------------------------------------------

**************************************************************************************

Host: fedora

Timers On : Tue Jun  8 18:36:52 2021
Timers Off: Tue Jun  8 18:39:00 2021

Wall Time:      127.64 seconds

                                                       Time (seconds)
Module                                       User      System        Wall        Calls

--------------------------------------------------------------------------------------

**************************************************************************************

Host: fedora

Timers On : Tue Jun  8 18:40:37 2021
Timers Off: Tue Jun  8 18:42:45 2021

Wall Time:      128.09 seconds

                                                       Time (seconds)
Module                                       User      System        Wall        Calls

--------------------------------------------------------------------------------------

**************************************************************************************

Host: fedora

Timers On : Tue Jun  8 18:46:05 2021
Timers Off: Tue Jun  8 18:48:12 2021

Wall Time:      127.27 seconds

                                                       Time (seconds)
Module                                       User      System        Wall        Calls

--------------------------------------------------------------------------------------

**************************************************************************************

Host: fedora

Timers On : Tue Jun  8 18:56:43 2021
Timers Off: Tue Jun  8 18:58:49 2021

Wall Time:      126.46 seconds

                                                       Time (seconds)
Module                                       User      System        Wall        Calls

--------------------------------------------------------------------------------------

**************************************************************************************

Host: fedora

Timers On : Tue Jun  8 19:47:09 2021
Timers Off: Tue Jun  8 19:49:14 2021

Wall Time:      125.60 seconds

                                                       Time (seconds)
Module                                       User      System        Wall        Calls

--------------------------------------------------------------------------------------

**************************************************************************************

Host: fedora

Timers On : Tue Jun  8 21:11:04 2021
Timers Off: Tue Jun  8 21:13:15 2021

Wall Time:      131.14 seconds

                                                       Time (seconds)
Module                                       User      System        Wall        Calls

--------------------------------------------------------------------------------------

**************************************************************************************

Host: fedora

Timers On : Tue Jun  8 21:17:05 2021
Timers Off: Tue Jun  8 21:19:12 2021

Wall Time:      126.90 seconds

                                                       Time (seconds)
Module                                       User      System        Wall        Calls

--------------------------------------------------------------------------------------

**************************************************************************************

Host: fedora

Timers On : Tue Jun  8 21:20:51 2021
Timers Off: Tue Jun  8 21:23:04 2021

Wall Time:      132.67 seconds

                                                       Time (seconds)
Module                                       User      System        Wall        Calls

--------------------------------------------------------------------------------------

**************************************************************************************

Host: fedora

Timers On : Tue Jun  8 21:46:22 2021
Timers Off: Tue Jun  8 21:48:29 2021

Wall Time:      126.97 seconds

                                                       Time (seconds)
Module                                       User      System        Wall        Calls

--------------------------------------------------------------------------------------

**************************************************************************************

Host: fedora

Timers On : Tue Jun  8 21:49:08 2021
Timers Off: Tue Jun  8 21:51:15 2021

Wall Time:      126.54 seconds

                                                       Time (seconds)
Module                                       User      System        Wall        Calls

--------------------------------------------------------------------------------------

**************************************************************************************

Host: fedora

Timers On : Tue Jun  8 21:56:21 2021
Timers Off: Tue Jun  8 21:58:32 2021

Wall Time:      130.40 seconds

                                                       Time (seconds)
Module                                       User      System        Wall        Calls

--------------------------------------------------------------------------------------

**************************************************************************************

Host: fedora

Timers On : Tue Jun  8 22:05:56 2021
Timers Off: Tue Jun  8 22:08:48 2021

Wall Time:      172.22 seconds

                                                       Time (seconds)
Module                                       User      System        Wall        Calls

--------------------------------------------------------------------------------------

**************************************************************************************

Host: fedora

Timers On : Tue Jun  8 22:23:07 2021
Timers Off: Tue Jun  8 22:31:36 2021

Wall Time:      508.71 seconds

                                                       Time (seconds)
Module                                       User      System        Wall        Calls

--------------------------------------------------------------------------------------

**************************************************************************************

Host: fedora

Timers On : Tue Jun  8 22:34:59 2021
Timers Off: Tue Jun  8 22:39:07 2021

Wall Time:      247.87 seconds

                                                       Time (seconds)
Module                                       User      System        Wall        Calls

--------------------------------------------------------------------------------------

**************************************************************************************

Host: fedora

Timers On : Tue Jun  8 23:16:57 2021
Timers Off: Tue Jun  8 23:21:18 2021

Wall Time:      261.14 seconds

                                                       Time (seconds)
Module                                       User      System        Wall        Calls

--------------------------------------------------------------------------------------

**************************************************************************************

Host: fedora

Timers On : Tue Jun  8 23:22:34 2021
Timers Off: Tue Jun  8 23:29:00 2021

Wall Time:      386.22 seconds

                                                       Time (seconds)
Module                                       User      System        Wall        Calls

--------------------------------------------------------------------------------------

**************************************************************************************

Host: fedora

Timers On : Tue Jun  8 23:55:19 2021
Timers Off: Wed Jun  9 00:04:16 2021

Wall Time:      537.07 seconds

                                                       Time (seconds)
Module                                       User      System        Wall        Calls

--------------------------------------------------------------------------------------

**************************************************************************************

Host: fedora

Timers On : Wed Jun  9 00:17:38 2021
Timers Off: Wed Jun  9 00:25:55 2021

Wall Time:      497.12 seconds

                                                       Time (seconds)
Module                                       User      System        Wall        Calls

--------------------------------------------------------------------------------------

**************************************************************************************

Host: fedora

Timers On : Wed Jun  9 00:29:34 2021
Timers Off: Wed Jun  9 00:35:41 2021

Wall Time:      367.53 seconds

                                                       Time (seconds)
Module                                       User      System        Wall        Calls

--------------------------------------------------------------------------------------

**************************************************************************************

Host: fedora

Timers On : Wed Jun  9 00:36:54 2021
Timers Off: Wed Jun  9 00:43:53 2021

Wall Time:      418.91 seconds

                                                       Time (seconds)
Module                                       User      System        Wall        Calls

--------------------------------------------------------------------------------------

**************************************************************************************

Host: fedora

Timers On : Wed Jun  9 20:25:30 2021
Timers Off: Wed Jun  9 20:27:15 2021

Wall Time:      104.76 seconds

                                                       Time (seconds)
Module                                       User      System        Wall        Calls

--------------------------------------------------------------------------------------

**************************************************************************************

Host: fedora

Timers On : Wed Jun  9 20:29:57 2021
Timers Off: Wed Jun  9 20:31:38 2021

Wall Time:      100.90 seconds

                                                       Time (seconds)
Module                                       User      System        Wall        Calls

--------------------------------------------------------------------------------------

**************************************************************************************

Host: fedora

Timers On : Wed Jun  9 20:42:18 2021
Timers Off: Wed Jun  9 20:44:03 2021

Wall Time:      104.81 seconds

                                                       Time (seconds)
Module                                       User      System        Wall        Calls

--------------------------------------------------------------------------------------

**************************************************************************************

Host: fedora

Timers On : Wed Jun  9 20:50:08 2021
Timers Off: Wed Jun  9 20:53:59 2021

Wall Time:      231.24 seconds

                                                       Time (seconds)
Module                                       User      System        Wall        Calls

--------------------------------------------------------------------------------------

**************************************************************************************

Host: fedora

Timers On : Wed Jun  9 20:58:32 2021
Timers Off: Wed Jun  9 21:02:34 2021

Wall Time:      241.70 seconds

                                                       Time (seconds)
Module                                       User      System        Wall        Calls

--------------------------------------------------------------------------------------

**************************************************************************************

Host: fedora

Timers On : Wed Jun  9 21:04:17 2021
Timers Off: Wed Jun  9 21:08:24 2021

Wall Time:      246.67 seconds

                                                       Time (seconds)
Module                                       User      System        Wall        Calls

--------------------------------------------------------------------------------------

**************************************************************************************
