
Host: HP-Pavilion-Gaming-Laptop-15-ec1xxx

Timers On : Tue Jul 13 20:26:55 2021
Timers Off: Tue Jul 13 20:45:28 2021

Wall Time:     1113.87 seconds

                                                       Time (seconds)
Module                                       User      System        Wall        Calls

--------------------------------------------------------------------------------------

**************************************************************************************
