
Host: fedora

Timers On : Fri Jun  4 21:03:06 2021
Timers Off: Fri Jun  4 21:03:07 2021

Wall Time:        0.55 seconds

                                                       Time (seconds)
Module                                       User      System        Wall        Calls

--------------------------------------------------------------------------------------

**************************************************************************************

Host: fedora

Timers On : Fri Jun  4 21:03:26 2021
Timers Off: Fri Jun  4 21:03:27 2021

Wall Time:        0.54 seconds

                                                       Time (seconds)
Module                                       User      System        Wall        Calls

--------------------------------------------------------------------------------------

**************************************************************************************

Host: fedora

Timers On : Fri Jun  4 21:03:46 2021
Timers Off: Fri Jun  4 21:03:47 2021

Wall Time:        0.56 seconds

                                                       Time (seconds)
Module                                       User      System        Wall        Calls

--------------------------------------------------------------------------------------

**************************************************************************************

Host: fedora

Timers On : Fri Jun  4 21:04:01 2021
Timers Off: Fri Jun  4 21:04:01 2021

Wall Time:        0.56 seconds

                                                       Time (seconds)
Module                                       User      System        Wall        Calls

--------------------------------------------------------------------------------------

**************************************************************************************

Host: fedora

Timers On : Fri Jun  4 21:04:15 2021
Timers Off: Fri Jun  4 21:04:15 2021

Wall Time:        0.57 seconds

                                                       Time (seconds)
Module                                       User      System        Wall        Calls

--------------------------------------------------------------------------------------

**************************************************************************************

Host: fedora

Timers On : Fri Jun  4 21:04:32 2021
Timers Off: Fri Jun  4 21:04:32 2021

Wall Time:        0.57 seconds

                                                       Time (seconds)
Module                                       User      System        Wall        Calls

--------------------------------------------------------------------------------------

**************************************************************************************

Host: fedora

Timers On : Fri Jun  4 21:04:48 2021
Timers Off: Fri Jun  4 21:07:54 2021

Wall Time:      185.53 seconds

                                                       Time (seconds)
Module                                       User      System        Wall        Calls

--------------------------------------------------------------------------------------

**************************************************************************************

Host: fedora

Timers On : Fri Jun  4 21:08:24 2021
Timers Off: Fri Jun  4 21:08:24 2021

Wall Time:        0.47 seconds

                                                       Time (seconds)
Module                                       User      System        Wall        Calls

--------------------------------------------------------------------------------------

**************************************************************************************

Host: fedora

Timers On : Fri Jun  4 21:31:30 2021
Timers Off: Fri Jun  4 21:31:30 2021

Wall Time:        0.72 seconds

                                                       Time (seconds)
Module                                       User      System        Wall        Calls

--------------------------------------------------------------------------------------

**************************************************************************************

Host: fedora

Timers On : Fri Jun  4 21:32:09 2021
Timers Off: Fri Jun  4 21:32:10 2021

Wall Time:        0.70 seconds

                                                       Time (seconds)
Module                                       User      System        Wall        Calls

--------------------------------------------------------------------------------------

**************************************************************************************

Host: fedora

Timers On : Fri Jun  4 21:32:45 2021
Timers Off: Fri Jun  4 21:32:45 2021

Wall Time:        0.71 seconds

                                                       Time (seconds)
Module                                       User      System        Wall        Calls

--------------------------------------------------------------------------------------

**************************************************************************************

Host: fedora

Timers On : Fri Jun  4 21:34:55 2021
Timers Off: Fri Jun  4 21:34:56 2021

Wall Time:        0.48 seconds

                                                       Time (seconds)
Module                                       User      System        Wall        Calls

--------------------------------------------------------------------------------------

**************************************************************************************

Host: fedora

Timers On : Fri Jun  4 21:36:31 2021
Timers Off: Fri Jun  4 21:36:32 2021

Wall Time:        0.86 seconds

                                                       Time (seconds)
Module                                       User      System        Wall        Calls

--------------------------------------------------------------------------------------

**************************************************************************************

Host: fedora

Timers On : Fri Jun  4 21:43:09 2021
Timers Off: Fri Jun  4 21:43:09 2021

Wall Time:        0.47 seconds

                                                       Time (seconds)
Module                                       User      System        Wall        Calls

--------------------------------------------------------------------------------------

**************************************************************************************

Host: fedora

Timers On : Fri Jun  4 21:46:40 2021
Timers Off: Fri Jun  4 21:46:40 2021

Wall Time:        0.73 seconds

                                                       Time (seconds)
Module                                       User      System        Wall        Calls

--------------------------------------------------------------------------------------

**************************************************************************************

Host: fedora

Timers On : Fri Jun  4 21:47:15 2021
Timers Off: Fri Jun  4 21:47:16 2021

Wall Time:        0.90 seconds

                                                       Time (seconds)
Module                                       User      System        Wall        Calls

--------------------------------------------------------------------------------------

**************************************************************************************

Host: fedora

Timers On : Fri Jun  4 21:47:38 2021
Timers Off: Fri Jun  4 21:47:39 2021

Wall Time:        0.90 seconds

                                                       Time (seconds)
Module                                       User      System        Wall        Calls

--------------------------------------------------------------------------------------

**************************************************************************************

Host: fedora

Timers On : Fri Jun  4 21:53:42 2021
Timers Off: Fri Jun  4 21:53:43 2021

Wall Time:        0.62 seconds

                                                       Time (seconds)
Module                                       User      System        Wall        Calls

--------------------------------------------------------------------------------------

**************************************************************************************

Host: fedora

Timers On : Fri Jun  4 21:54:50 2021
Timers Off: Fri Jun  4 21:54:50 2021

Wall Time:        0.65 seconds

                                                       Time (seconds)
Module                                       User      System        Wall        Calls

--------------------------------------------------------------------------------------

**************************************************************************************

Host: fedora

Timers On : Fri Jun  4 21:56:07 2021
Timers Off: Fri Jun  4 21:56:08 2021

Wall Time:        0.66 seconds

                                                       Time (seconds)
Module                                       User      System        Wall        Calls

--------------------------------------------------------------------------------------

**************************************************************************************

Host: fedora

Timers On : Fri Jun  4 21:56:58 2021
Timers Off: Fri Jun  4 21:56:58 2021

Wall Time:        0.59 seconds

                                                       Time (seconds)
Module                                       User      System        Wall        Calls

--------------------------------------------------------------------------------------

**************************************************************************************

Host: fedora

Timers On : Fri Jun  4 21:57:17 2021
Timers Off: Fri Jun  4 21:57:17 2021

Wall Time:        0.71 seconds

                                                       Time (seconds)
Module                                       User      System        Wall        Calls

--------------------------------------------------------------------------------------

**************************************************************************************

Host: fedora

Timers On : Fri Jun  4 21:57:32 2021
Timers Off: Fri Jun  4 21:57:33 2021

Wall Time:        0.74 seconds

                                                       Time (seconds)
Module                                       User      System        Wall        Calls

--------------------------------------------------------------------------------------

**************************************************************************************

Host: fedora

Timers On : Fri Jun  4 21:57:47 2021
Timers Off: Fri Jun  4 21:57:47 2021

Wall Time:        0.51 seconds

                                                       Time (seconds)
Module                                       User      System        Wall        Calls

--------------------------------------------------------------------------------------

**************************************************************************************

Host: fedora

Timers On : Fri Jun  4 22:02:40 2021
Timers Off: Fri Jun  4 22:02:40 2021

Wall Time:        0.52 seconds

                                                       Time (seconds)
Module                                       User      System        Wall        Calls

--------------------------------------------------------------------------------------

**************************************************************************************

Host: fedora

Timers On : Fri Jun  4 22:03:44 2021
Timers Off: Fri Jun  4 22:03:45 2021

Wall Time:        0.55 seconds

                                                       Time (seconds)
Module                                       User      System        Wall        Calls

--------------------------------------------------------------------------------------

**************************************************************************************

Host: fedora

Timers On : Fri Jun  4 22:03:53 2021
Timers Off: Fri Jun  4 22:03:53 2021

Wall Time:        0.53 seconds

                                                       Time (seconds)
Module                                       User      System        Wall        Calls

--------------------------------------------------------------------------------------

**************************************************************************************

Host: fedora

Timers On : Fri Jun  4 22:04:28 2021
Timers Off: Fri Jun  4 22:04:29 2021

Wall Time:        0.52 seconds

                                                       Time (seconds)
Module                                       User      System        Wall        Calls

--------------------------------------------------------------------------------------

**************************************************************************************

Host: fedora

Timers On : Fri Jun  4 22:12:51 2021
Timers Off: Fri Jun  4 22:12:51 2021

Wall Time:        0.91 seconds

                                                       Time (seconds)
Module                                       User      System        Wall        Calls

--------------------------------------------------------------------------------------

**************************************************************************************

Host: fedora

Timers On : Fri Jun  4 22:13:50 2021
Timers Off: Fri Jun  4 22:13:51 2021

Wall Time:        0.90 seconds

                                                       Time (seconds)
Module                                       User      System        Wall        Calls

--------------------------------------------------------------------------------------

**************************************************************************************

Host: fedora

Timers On : Fri Jun  4 22:15:08 2021
Timers Off: Fri Jun  4 22:15:09 2021

Wall Time:        0.83 seconds

                                                       Time (seconds)
Module                                       User      System        Wall        Calls

--------------------------------------------------------------------------------------

**************************************************************************************

Host: fedora

Timers On : Fri Jun  4 22:15:29 2021
Timers Off: Fri Jun  4 22:15:30 2021

Wall Time:        0.85 seconds

                                                       Time (seconds)
Module                                       User      System        Wall        Calls

--------------------------------------------------------------------------------------

**************************************************************************************

Host: fedora

Timers On : Fri Jun  4 22:16:25 2021
Timers Off: Fri Jun  4 22:16:25 2021

Wall Time:        0.53 seconds

                                                       Time (seconds)
Module                                       User      System        Wall        Calls

--------------------------------------------------------------------------------------

**************************************************************************************

Host: fedora

Timers On : Fri Jun  4 22:16:42 2021
Timers Off: Fri Jun  4 22:16:43 2021

Wall Time:        0.60 seconds

                                                       Time (seconds)
Module                                       User      System        Wall        Calls

--------------------------------------------------------------------------------------

**************************************************************************************

Host: fedora

Timers On : Fri Jun  4 22:19:03 2021
Timers Off: Fri Jun  4 22:19:04 2021

Wall Time:        0.56 seconds

                                                       Time (seconds)
Module                                       User      System        Wall        Calls

--------------------------------------------------------------------------------------

**************************************************************************************

Host: fedora

Timers On : Fri Jun  4 22:19:15 2021
Timers Off: Fri Jun  4 22:19:17 2021

Wall Time:        1.20 seconds

                                                       Time (seconds)
Module                                       User      System        Wall        Calls

--------------------------------------------------------------------------------------

**************************************************************************************

Host: fedora

Timers On : Fri Jun  4 22:20:43 2021
Timers Off: Fri Jun  4 22:20:44 2021

Wall Time:        0.57 seconds

                                                       Time (seconds)
Module                                       User      System        Wall        Calls

--------------------------------------------------------------------------------------

**************************************************************************************

Host: fedora

Timers On : Fri Jun  4 22:27:46 2021
Timers Off: Fri Jun  4 22:27:46 2021

Wall Time:        0.58 seconds

                                                       Time (seconds)
Module                                       User      System        Wall        Calls

--------------------------------------------------------------------------------------

**************************************************************************************

Host: fedora

Timers On : Fri Jun  4 22:30:27 2021
Timers Off: Fri Jun  4 22:30:28 2021

Wall Time:        0.57 seconds

                                                       Time (seconds)
Module                                       User      System        Wall        Calls

--------------------------------------------------------------------------------------

**************************************************************************************

Host: fedora

Timers On : Fri Jun  4 22:30:46 2021
Timers Off: Fri Jun  4 22:30:47 2021

Wall Time:        0.59 seconds

                                                       Time (seconds)
Module                                       User      System        Wall        Calls

--------------------------------------------------------------------------------------

**************************************************************************************

Host: fedora

Timers On : Fri Jun  4 22:31:09 2021
Timers Off: Fri Jun  4 22:31:10 2021

Wall Time:        0.63 seconds

                                                       Time (seconds)
Module                                       User      System        Wall        Calls

--------------------------------------------------------------------------------------

**************************************************************************************

Host: fedora

Timers On : Fri Jun  4 22:35:53 2021
Timers Off: Fri Jun  4 22:35:54 2021

Wall Time:        0.83 seconds

                                                       Time (seconds)
Module                                       User      System        Wall        Calls

--------------------------------------------------------------------------------------

**************************************************************************************

Host: fedora

Timers On : Fri Jun  4 22:36:06 2021
Timers Off: Fri Jun  4 22:36:07 2021

Wall Time:        0.60 seconds

                                                       Time (seconds)
Module                                       User      System        Wall        Calls

--------------------------------------------------------------------------------------

**************************************************************************************

Host: fedora

Timers On : Fri Jun  4 22:36:22 2021
Timers Off: Fri Jun  4 22:36:23 2021

Wall Time:        0.60 seconds

                                                       Time (seconds)
Module                                       User      System        Wall        Calls

--------------------------------------------------------------------------------------

**************************************************************************************

Host: fedora

Timers On : Fri Jun  4 22:41:27 2021
Timers Off: Fri Jun  4 22:41:28 2021

Wall Time:        0.86 seconds

                                                       Time (seconds)
Module                                       User      System        Wall        Calls

--------------------------------------------------------------------------------------

**************************************************************************************

Host: fedora

Timers On : Fri Jun  4 22:41:50 2021
Timers Off: Fri Jun  4 22:41:51 2021

Wall Time:        0.85 seconds

                                                       Time (seconds)
Module                                       User      System        Wall        Calls

--------------------------------------------------------------------------------------

**************************************************************************************

Host: fedora

Timers On : Fri Jun  4 22:42:11 2021
Timers Off: Fri Jun  4 22:42:12 2021

Wall Time:        0.96 seconds

                                                       Time (seconds)
Module                                       User      System        Wall        Calls

--------------------------------------------------------------------------------------

**************************************************************************************

Host: fedora

Timers On : Fri Jun  4 22:43:11 2021
Timers Off: Fri Jun  4 22:43:12 2021

Wall Time:        0.61 seconds

                                                       Time (seconds)
Module                                       User      System        Wall        Calls

--------------------------------------------------------------------------------------

**************************************************************************************

Host: fedora

Timers On : Fri Jun  4 22:44:11 2021
Timers Off: Fri Jun  4 22:44:12 2021

Wall Time:        0.63 seconds

                                                       Time (seconds)
Module                                       User      System        Wall        Calls

--------------------------------------------------------------------------------------

**************************************************************************************

Host: fedora

Timers On : Fri Jun  4 22:46:14 2021
Timers Off: Fri Jun  4 22:46:15 2021

Wall Time:        0.73 seconds

                                                       Time (seconds)
Module                                       User      System        Wall        Calls

--------------------------------------------------------------------------------------

**************************************************************************************

Host: fedora

Timers On : Fri Jun  4 22:46:30 2021
Timers Off: Fri Jun  4 22:46:30 2021

Wall Time:        0.75 seconds

                                                       Time (seconds)
Module                                       User      System        Wall        Calls

--------------------------------------------------------------------------------------

**************************************************************************************

Host: fedora

Timers On : Fri Jun  4 22:46:41 2021
Timers Off: Fri Jun  4 22:46:41 2021

Wall Time:        0.95 seconds

                                                       Time (seconds)
Module                                       User      System        Wall        Calls

--------------------------------------------------------------------------------------

**************************************************************************************

Host: fedora

Timers On : Fri Jun  4 22:48:59 2021
Timers Off: Fri Jun  4 22:49:00 2021

Wall Time:        1.19 seconds

                                                       Time (seconds)
Module                                       User      System        Wall        Calls

--------------------------------------------------------------------------------------

**************************************************************************************

Host: fedora

Timers On : Fri Jun  4 22:49:11 2021
Timers Off: Fri Jun  4 22:49:12 2021

Wall Time:        1.16 seconds

                                                       Time (seconds)
Module                                       User      System        Wall        Calls

--------------------------------------------------------------------------------------

**************************************************************************************

Host: fedora

Timers On : Fri Jun  4 22:49:47 2021
Timers Off: Fri Jun  4 22:49:48 2021

Wall Time:        1.18 seconds

                                                       Time (seconds)
Module                                       User      System        Wall        Calls

--------------------------------------------------------------------------------------

**************************************************************************************

Host: fedora

Timers On : Fri Jun  4 22:49:58 2021
Timers Off: Fri Jun  4 22:50:00 2021

Wall Time:        2.11 seconds

                                                       Time (seconds)
Module                                       User      System        Wall        Calls

--------------------------------------------------------------------------------------

**************************************************************************************

Host: fedora

Timers On : Fri Jun  4 22:54:52 2021
Timers Off: Fri Jun  4 22:54:54 2021

Wall Time:        1.98 seconds

                                                       Time (seconds)
Module                                       User      System        Wall        Calls

--------------------------------------------------------------------------------------

**************************************************************************************

Host: fedora

Timers On : Fri Jun  4 22:55:44 2021
Timers Off: Fri Jun  4 22:55:46 2021

Wall Time:        2.09 seconds

                                                       Time (seconds)
Module                                       User      System        Wall        Calls

--------------------------------------------------------------------------------------

**************************************************************************************

Host: fedora

Timers On : Fri Jun  4 22:56:23 2021
Timers Off: Fri Jun  4 22:56:26 2021

Wall Time:        2.10 seconds

                                                       Time (seconds)
Module                                       User      System        Wall        Calls

--------------------------------------------------------------------------------------

**************************************************************************************

Host: fedora

Timers On : Fri Jun  4 22:56:58 2021
Timers Off: Fri Jun  4 22:57:06 2021

Wall Time:        8.25 seconds

                                                       Time (seconds)
Module                                       User      System        Wall        Calls

--------------------------------------------------------------------------------------

**************************************************************************************

Host: fedora

Timers On : Fri Jun  4 23:01:06 2021
Timers Off: Fri Jun  4 23:01:14 2021

Wall Time:        8.44 seconds

                                                       Time (seconds)
Module                                       User      System        Wall        Calls

--------------------------------------------------------------------------------------

**************************************************************************************

Host: fedora

Timers On : Fri Jun  4 23:01:50 2021
Timers Off: Fri Jun  4 23:01:59 2021

Wall Time:        8.44 seconds

                                                       Time (seconds)
Module                                       User      System        Wall        Calls

--------------------------------------------------------------------------------------

**************************************************************************************

Host: fedora

Timers On : Fri Jun  4 23:02:15 2021
Timers Off: Fri Jun  4 23:02:23 2021

Wall Time:        8.86 seconds

                                                       Time (seconds)
Module                                       User      System        Wall        Calls

--------------------------------------------------------------------------------------

**************************************************************************************

Host: fedora

Timers On : Fri Jun  4 23:05:46 2021
Timers Off: Fri Jun  4 23:05:55 2021

Wall Time:        8.48 seconds

                                                       Time (seconds)
Module                                       User      System        Wall        Calls

--------------------------------------------------------------------------------------

**************************************************************************************

Host: fedora

Timers On : Fri Jun  4 23:07:45 2021
Timers Off: Fri Jun  4 23:07:54 2021

Wall Time:        8.82 seconds

                                                       Time (seconds)
Module                                       User      System        Wall        Calls

--------------------------------------------------------------------------------------

**************************************************************************************

Host: fedora

Timers On : Fri Jun  4 23:13:33 2021
Timers Off: Fri Jun  4 23:13:41 2021

Wall Time:        8.58 seconds

                                                       Time (seconds)
Module                                       User      System        Wall        Calls

--------------------------------------------------------------------------------------

**************************************************************************************

Host: fedora

Timers On : Fri Jun  4 23:15:18 2021
Timers Off: Fri Jun  4 23:15:27 2021

Wall Time:        8.98 seconds

                                                       Time (seconds)
Module                                       User      System        Wall        Calls

--------------------------------------------------------------------------------------

**************************************************************************************

Host: fedora

Timers On : Fri Jun  4 23:16:21 2021
Timers Off: Fri Jun  4 23:16:30 2021

Wall Time:        9.09 seconds

                                                       Time (seconds)
Module                                       User      System        Wall        Calls

--------------------------------------------------------------------------------------

**************************************************************************************

Host: fedora

Timers On : Fri Jun  4 23:21:17 2021
Timers Off: Fri Jun  4 23:21:25 2021

Wall Time:        8.53 seconds

                                                       Time (seconds)
Module                                       User      System        Wall        Calls

--------------------------------------------------------------------------------------

**************************************************************************************

Host: fedora

Timers On : Fri Jun  4 23:21:46 2021
Timers Off: Fri Jun  4 23:21:55 2021

Wall Time:        8.91 seconds

                                                       Time (seconds)
Module                                       User      System        Wall        Calls

--------------------------------------------------------------------------------------

**************************************************************************************

Host: fedora

Timers On : Fri Jun  4 23:22:26 2021
Timers Off: Fri Jun  4 23:22:35 2021

Wall Time:        9.31 seconds

                                                       Time (seconds)
Module                                       User      System        Wall        Calls

--------------------------------------------------------------------------------------

**************************************************************************************

Host: fedora

Timers On : Fri Jun  4 23:30:21 2021
Timers Off: Fri Jun  4 23:30:32 2021

Wall Time:       10.98 seconds

                                                       Time (seconds)
Module                                       User      System        Wall        Calls

--------------------------------------------------------------------------------------

**************************************************************************************

Host: fedora

Timers On : Fri Jun  4 23:31:09 2021
Timers Off: Fri Jun  4 23:31:19 2021

Wall Time:        9.41 seconds

                                                       Time (seconds)
Module                                       User      System        Wall        Calls

--------------------------------------------------------------------------------------

**************************************************************************************

Host: fedora

Timers On : Fri Jun  4 23:32:03 2021
Timers Off: Fri Jun  4 23:32:12 2021

Wall Time:        8.95 seconds

                                                       Time (seconds)
Module                                       User      System        Wall        Calls

--------------------------------------------------------------------------------------

**************************************************************************************

Host: fedora

Timers On : Fri Jun  4 23:33:34 2021
Timers Off: Fri Jun  4 23:33:39 2021

Wall Time:        4.73 seconds

                                                       Time (seconds)
Module                                       User      System        Wall        Calls

--------------------------------------------------------------------------------------

**************************************************************************************

Host: fedora

Timers On : Fri Jun  4 23:33:58 2021
Timers Off: Fri Jun  4 23:34:02 2021

Wall Time:        4.00 seconds

                                                       Time (seconds)
Module                                       User      System        Wall        Calls

--------------------------------------------------------------------------------------

**************************************************************************************

Host: fedora

Timers On : Fri Jun  4 23:44:01 2021
Timers Off: Fri Jun  4 23:44:05 2021

Wall Time:        4.19 seconds

                                                       Time (seconds)
Module                                       User      System        Wall        Calls

--------------------------------------------------------------------------------------

**************************************************************************************

Host: fedora

Timers On : Fri Jun  4 23:52:00 2021
Timers Off: Fri Jun  4 23:52:05 2021

Wall Time:        4.57 seconds

                                                       Time (seconds)
Module                                       User      System        Wall        Calls

--------------------------------------------------------------------------------------

**************************************************************************************

Host: fedora

Timers On : Fri Jun  4 23:53:27 2021
Timers Off: Fri Jun  4 23:53:32 2021

Wall Time:        4.68 seconds

                                                       Time (seconds)
Module                                       User      System        Wall        Calls

--------------------------------------------------------------------------------------

**************************************************************************************

Host: fedora

Timers On : Sat Jun  5 00:01:41 2021
Timers Off: Sat Jun  5 00:01:46 2021

Wall Time:        4.91 seconds

                                                       Time (seconds)
Module                                       User      System        Wall        Calls

--------------------------------------------------------------------------------------

**************************************************************************************

Host: fedora

Timers On : Sat Jun  5 00:02:56 2021
Timers Off: Sat Jun  5 00:03:00 2021

Wall Time:        4.95 seconds

                                                       Time (seconds)
Module                                       User      System        Wall        Calls

--------------------------------------------------------------------------------------

**************************************************************************************

Host: fedora

Timers On : Sat Jun  5 00:03:40 2021
Timers Off: Sat Jun  5 00:03:45 2021

Wall Time:        5.02 seconds

                                                       Time (seconds)
Module                                       User      System        Wall        Calls

--------------------------------------------------------------------------------------

**************************************************************************************

Host: fedora

Timers On : Sat Jun  5 00:04:18 2021
Timers Off: Sat Jun  5 00:04:26 2021

Wall Time:        7.53 seconds

                                                       Time (seconds)
Module                                       User      System        Wall        Calls

--------------------------------------------------------------------------------------

**************************************************************************************

Host: fedora

Timers On : Sat Jun  5 00:06:18 2021
Timers Off: Sat Jun  5 00:06:24 2021

Wall Time:        5.49 seconds

                                                       Time (seconds)
Module                                       User      System        Wall        Calls

--------------------------------------------------------------------------------------

**************************************************************************************

Host: fedora

Timers On : Sat Jun  5 00:15:00 2021
Timers Off: Sat Jun  5 00:15:08 2021

Wall Time:        8.21 seconds

                                                       Time (seconds)
Module                                       User      System        Wall        Calls

--------------------------------------------------------------------------------------

**************************************************************************************

Host: fedora

Timers On : Sat Jun  5 00:16:33 2021
Timers Off: Sat Jun  5 00:16:40 2021

Wall Time:        6.97 seconds

                                                       Time (seconds)
Module                                       User      System        Wall        Calls

--------------------------------------------------------------------------------------

**************************************************************************************

Host: fedora

Timers On : Sat Jun  5 00:28:46 2021
Timers Off: Sat Jun  5 00:28:53 2021

Wall Time:        7.31 seconds

                                                       Time (seconds)
Module                                       User      System        Wall        Calls

--------------------------------------------------------------------------------------

**************************************************************************************

Host: fedora

Timers On : Sat Jun  5 00:32:32 2021
Timers Off: Sat Jun  5 00:32:39 2021

Wall Time:        7.19 seconds

                                                       Time (seconds)
Module                                       User      System        Wall        Calls

--------------------------------------------------------------------------------------

**************************************************************************************

Host: fedora

Timers On : Sat Jun  5 00:42:36 2021
Timers Off: Sat Jun  5 00:42:43 2021

Wall Time:        7.56 seconds

                                                       Time (seconds)
Module                                       User      System        Wall        Calls

--------------------------------------------------------------------------------------

**************************************************************************************

Host: fedora

Timers On : Sat Jun  5 00:45:31 2021
Timers Off: Sat Jun  5 00:45:39 2021

Wall Time:        7.91 seconds

                                                       Time (seconds)
Module                                       User      System        Wall        Calls

--------------------------------------------------------------------------------------

**************************************************************************************

Host: fedora

Timers On : Sat Jun  5 01:01:34 2021
Timers Off: Sat Jun  5 01:01:44 2021

Wall Time:        9.38 seconds

                                                       Time (seconds)
Module                                       User      System        Wall        Calls

--------------------------------------------------------------------------------------

**************************************************************************************

Host: fedora

Timers On : Sat Jun  5 01:04:41 2021
Timers Off: Sat Jun  5 01:04:50 2021

Wall Time:        8.87 seconds

                                                       Time (seconds)
Module                                       User      System        Wall        Calls

--------------------------------------------------------------------------------------

**************************************************************************************

Host: fedora

Timers On : Sat Jun  5 01:10:57 2021
Timers Off: Sat Jun  5 01:11:06 2021

Wall Time:        8.88 seconds

                                                       Time (seconds)
Module                                       User      System        Wall        Calls

--------------------------------------------------------------------------------------

**************************************************************************************

Host: fedora

Timers On : Sat Jun  5 01:11:26 2021
Timers Off: Sat Jun  5 01:11:35 2021

Wall Time:        9.38 seconds

                                                       Time (seconds)
Module                                       User      System        Wall        Calls

--------------------------------------------------------------------------------------

**************************************************************************************

Host: fedora

Timers On : Sat Jun  5 01:16:56 2021
Timers Off: Sat Jun  5 01:17:06 2021

Wall Time:        9.85 seconds

                                                       Time (seconds)
Module                                       User      System        Wall        Calls

--------------------------------------------------------------------------------------

**************************************************************************************

Host: fedora

Timers On : Sat Jun  5 01:18:46 2021
Timers Off: Sat Jun  5 01:18:55 2021

Wall Time:        9.59 seconds

                                                       Time (seconds)
Module                                       User      System        Wall        Calls

--------------------------------------------------------------------------------------

**************************************************************************************

Host: fedora

Timers On : Sat Jun  5 01:19:48 2021
Timers Off: Sat Jun  5 01:19:58 2021

Wall Time:        9.67 seconds

                                                       Time (seconds)
Module                                       User      System        Wall        Calls

--------------------------------------------------------------------------------------

**************************************************************************************

Host: fedora

Timers On : Sat Jun  5 01:43:11 2021
Timers Off: Sat Jun  5 01:43:21 2021

Wall Time:        9.55 seconds

                                                       Time (seconds)
Module                                       User      System        Wall        Calls

--------------------------------------------------------------------------------------

**************************************************************************************

Host: fedora

Timers On : Sat Jun  5 01:44:50 2021
Timers Off: Sat Jun  5 01:45:00 2021

Wall Time:        9.47 seconds

                                                       Time (seconds)
Module                                       User      System        Wall        Calls

--------------------------------------------------------------------------------------

**************************************************************************************

Host: fedora

Timers On : Sat Jun  5 01:54:45 2021
Timers Off: Sat Jun  5 01:54:55 2021

Wall Time:       10.45 seconds

                                                       Time (seconds)
Module                                       User      System        Wall        Calls

--------------------------------------------------------------------------------------

**************************************************************************************

Host: fedora

Timers On : Sat Jun  5 01:57:15 2021
Timers Off: Sat Jun  5 01:57:26 2021

Wall Time:       11.10 seconds

                                                       Time (seconds)
Module                                       User      System        Wall        Calls

--------------------------------------------------------------------------------------

**************************************************************************************

Host: fedora

Timers On : Sat Jun  5 02:00:35 2021
Timers Off: Sat Jun  5 02:00:46 2021

Wall Time:       11.36 seconds

                                                       Time (seconds)
Module                                       User      System        Wall        Calls

--------------------------------------------------------------------------------------

**************************************************************************************

Host: fedora

Timers On : Sat Jun  5 02:02:30 2021
Timers Off: Sat Jun  5 02:02:40 2021

Wall Time:       10.72 seconds

                                                       Time (seconds)
Module                                       User      System        Wall        Calls

--------------------------------------------------------------------------------------

**************************************************************************************

Host: fedora

Timers On : Sat Jun  5 02:03:15 2021
Timers Off: Sat Jun  5 02:03:26 2021

Wall Time:       10.60 seconds

                                                       Time (seconds)
Module                                       User      System        Wall        Calls

--------------------------------------------------------------------------------------

**************************************************************************************

Host: fedora

Timers On : Sat Jun  5 02:03:51 2021
Timers Off: Sat Jun  5 02:04:01 2021

Wall Time:       10.69 seconds

                                                       Time (seconds)
Module                                       User      System        Wall        Calls

--------------------------------------------------------------------------------------

**************************************************************************************

Host: fedora

Timers On : Sat Jun  5 02:07:33 2021
Timers Off: Sat Jun  5 02:07:44 2021

Wall Time:       10.99 seconds

                                                       Time (seconds)
Module                                       User      System        Wall        Calls

--------------------------------------------------------------------------------------

**************************************************************************************

Host: fedora

Timers On : Sat Jun  5 02:08:33 2021
Timers Off: Sat Jun  5 02:08:44 2021

Wall Time:       11.23 seconds

                                                       Time (seconds)
Module                                       User      System        Wall        Calls

--------------------------------------------------------------------------------------

**************************************************************************************

Host: fedora

Timers On : Sat Jun  5 02:09:09 2021
Timers Off: Sat Jun  5 02:09:20 2021

Wall Time:       10.84 seconds

                                                       Time (seconds)
Module                                       User      System        Wall        Calls

--------------------------------------------------------------------------------------

**************************************************************************************

Host: fedora

Timers On : Sat Jun  5 02:14:08 2021
Timers Off: Sat Jun  5 02:14:19 2021

Wall Time:       11.11 seconds

                                                       Time (seconds)
Module                                       User      System        Wall        Calls

--------------------------------------------------------------------------------------

**************************************************************************************

Host: fedora

Timers On : Sat Jun  5 02:15:43 2021
Timers Off: Sat Jun  5 02:15:55 2021

Wall Time:       11.86 seconds

                                                       Time (seconds)
Module                                       User      System        Wall        Calls

--------------------------------------------------------------------------------------

**************************************************************************************

Host: fedora

Timers On : Sat Jun  5 02:24:51 2021
Timers Off: Sat Jun  5 02:25:03 2021

Wall Time:       12.40 seconds

                                                       Time (seconds)
Module                                       User      System        Wall        Calls

--------------------------------------------------------------------------------------

**************************************************************************************

Host: fedora

Timers On : Sat Jun  5 02:32:13 2021
Timers Off: Sat Jun  5 02:32:25 2021

Wall Time:       11.83 seconds

                                                       Time (seconds)
Module                                       User      System        Wall        Calls

--------------------------------------------------------------------------------------

**************************************************************************************

Host: fedora

Timers On : Sat Jun  5 02:33:10 2021
Timers Off: Sat Jun  5 02:33:22 2021

Wall Time:       12.09 seconds

                                                       Time (seconds)
Module                                       User      System        Wall        Calls

--------------------------------------------------------------------------------------

**************************************************************************************

Host: fedora

Timers On : Sat Jun  5 02:45:00 2021
Timers Off: Sat Jun  5 02:45:12 2021

Wall Time:       12.44 seconds

                                                       Time (seconds)
Module                                       User      System        Wall        Calls

--------------------------------------------------------------------------------------

**************************************************************************************

Host: fedora

Timers On : Sat Jun  5 02:45:35 2021
Timers Off: Sat Jun  5 02:45:47 2021

Wall Time:       12.14 seconds

                                                       Time (seconds)
Module                                       User      System        Wall        Calls

--------------------------------------------------------------------------------------

**************************************************************************************

Host: fedora

Timers On : Sat Jun  5 02:58:12 2021
Timers Off: Sat Jun  5 02:58:24 2021

Wall Time:       12.29 seconds

                                                       Time (seconds)
Module                                       User      System        Wall        Calls

--------------------------------------------------------------------------------------

**************************************************************************************

Host: fedora

Timers On : Sat Jun  5 03:02:48 2021
Timers Off: Sat Jun  5 03:03:02 2021

Wall Time:       13.78 seconds

                                                       Time (seconds)
Module                                       User      System        Wall        Calls

--------------------------------------------------------------------------------------

**************************************************************************************

Host: fedora

Timers On : Sat Jun  5 03:05:21 2021
Timers Off: Sat Jun  5 03:05:34 2021

Wall Time:       12.89 seconds

                                                       Time (seconds)
Module                                       User      System        Wall        Calls

--------------------------------------------------------------------------------------

**************************************************************************************

Host: fedora

Timers On : Sat Jun  5 03:06:38 2021
Timers Off: Sat Jun  5 03:06:50 2021

Wall Time:       12.37 seconds

                                                       Time (seconds)
Module                                       User      System        Wall        Calls

--------------------------------------------------------------------------------------

**************************************************************************************

Host: fedora

Timers On : Sat Jun  5 03:07:39 2021
Timers Off: Sat Jun  5 03:07:52 2021

Wall Time:       12.42 seconds

                                                       Time (seconds)
Module                                       User      System        Wall        Calls

--------------------------------------------------------------------------------------

**************************************************************************************

Host: fedora

Timers On : Sat Jun  5 03:08:49 2021
Timers Off: Sat Jun  5 03:09:03 2021

Wall Time:       13.56 seconds

                                                       Time (seconds)
Module                                       User      System        Wall        Calls

--------------------------------------------------------------------------------------

**************************************************************************************

Host: fedora

Timers On : Sat Jun  5 03:13:58 2021
Timers Off: Sat Jun  5 03:14:16 2021

Wall Time:       18.09 seconds

                                                       Time (seconds)
Module                                       User      System        Wall        Calls

--------------------------------------------------------------------------------------

**************************************************************************************

Host: fedora

Timers On : Sat Jun  5 03:15:08 2021
Timers Off: Sat Jun  5 03:15:19 2021

Wall Time:       11.66 seconds

                                                       Time (seconds)
Module                                       User      System        Wall        Calls

--------------------------------------------------------------------------------------

**************************************************************************************

Host: fedora

Timers On : Sat Jun  5 09:18:25 2021
Timers Off: Sat Jun  5 09:18:44 2021

Wall Time:       18.67 seconds

                                                       Time (seconds)
Module                                       User      System        Wall        Calls

--------------------------------------------------------------------------------------

**************************************************************************************

Host: fedora

Timers On : Sat Jun  5 09:19:58 2021
Timers Off: Sat Jun  5 09:20:16 2021

Wall Time:       18.38 seconds

                                                       Time (seconds)
Module                                       User      System        Wall        Calls

--------------------------------------------------------------------------------------

**************************************************************************************

Host: fedora

Timers On : Sat Jun  5 09:21:12 2021
Timers Off: Sat Jun  5 09:21:32 2021

Wall Time:       20.23 seconds

                                                       Time (seconds)
Module                                       User      System        Wall        Calls

--------------------------------------------------------------------------------------

**************************************************************************************

Host: fedora

Timers On : Sat Jun  5 09:25:17 2021
Timers Off: Sat Jun  5 09:25:36 2021

Wall Time:       19.33 seconds

                                                       Time (seconds)
Module                                       User      System        Wall        Calls

--------------------------------------------------------------------------------------

**************************************************************************************

Host: fedora

Timers On : Sat Jun  5 09:30:52 2021
Timers Off: Sat Jun  5 09:31:11 2021

Wall Time:       19.69 seconds

                                                       Time (seconds)
Module                                       User      System        Wall        Calls

--------------------------------------------------------------------------------------

**************************************************************************************

Host: fedora

Timers On : Sat Jun  5 09:32:31 2021
Timers Off: Sat Jun  5 09:32:51 2021

Wall Time:       19.55 seconds

                                                       Time (seconds)
Module                                       User      System        Wall        Calls

--------------------------------------------------------------------------------------

**************************************************************************************

Host: fedora

Timers On : Sat Jun  5 09:36:26 2021
Timers Off: Sat Jun  5 09:36:38 2021

Wall Time:       12.17 seconds

                                                       Time (seconds)
Module                                       User      System        Wall        Calls

--------------------------------------------------------------------------------------

**************************************************************************************

Host: fedora

Timers On : Sat Jun  5 09:37:29 2021
Timers Off: Sat Jun  5 09:37:41 2021

Wall Time:       11.87 seconds

                                                       Time (seconds)
Module                                       User      System        Wall        Calls

--------------------------------------------------------------------------------------

**************************************************************************************

Host: fedora

Timers On : Sat Jun  5 09:38:14 2021
Timers Off: Sat Jun  5 09:38:33 2021

Wall Time:       18.54 seconds

                                                       Time (seconds)
Module                                       User      System        Wall        Calls

--------------------------------------------------------------------------------------

**************************************************************************************

Host: fedora

Timers On : Sat Jun  5 09:39:45 2021
Timers Off: Sat Jun  5 09:40:05 2021

Wall Time:       19.25 seconds

                                                       Time (seconds)
Module                                       User      System        Wall        Calls

--------------------------------------------------------------------------------------

**************************************************************************************

Host: fedora

Timers On : Sat Jun  5 09:41:51 2021
Timers Off: Sat Jun  5 09:42:11 2021

Wall Time:       20.15 seconds

                                                       Time (seconds)
Module                                       User      System        Wall        Calls

--------------------------------------------------------------------------------------

**************************************************************************************

Host: fedora

Timers On : Sat Jun  5 09:54:06 2021
Timers Off: Sat Jun  5 09:54:26 2021

Wall Time:       19.68 seconds

                                                       Time (seconds)
Module                                       User      System        Wall        Calls

--------------------------------------------------------------------------------------

**************************************************************************************

Host: fedora

Timers On : Sat Jun  5 09:55:28 2021
Timers Off: Sat Jun  5 09:55:37 2021

Wall Time:        9.11 seconds

                                                       Time (seconds)
Module                                       User      System        Wall        Calls

--------------------------------------------------------------------------------------

**************************************************************************************

Host: fedora

Timers On : Sat Jun  5 09:56:08 2021
Timers Off: Sat Jun  5 09:56:17 2021

Wall Time:        9.16 seconds

                                                       Time (seconds)
Module                                       User      System        Wall        Calls

--------------------------------------------------------------------------------------

**************************************************************************************

Host: fedora

Timers On : Sat Jun  5 09:57:17 2021
Timers Off: Sat Jun  5 09:57:26 2021

Wall Time:        8.63 seconds

                                                       Time (seconds)
Module                                       User      System        Wall        Calls

--------------------------------------------------------------------------------------

**************************************************************************************

Host: fedora

Timers On : Sat Jun  5 09:58:25 2021
Timers Off: Sat Jun  5 09:58:39 2021

Wall Time:       13.84 seconds

                                                       Time (seconds)
Module                                       User      System        Wall        Calls

--------------------------------------------------------------------------------------

**************************************************************************************

Host: fedora

Timers On : Sat Jun  5 10:56:34 2021
Timers Off: Sat Jun  5 10:57:04 2021

Wall Time:       29.70 seconds

                                                       Time (seconds)
Module                                       User      System        Wall        Calls

--------------------------------------------------------------------------------------

**************************************************************************************

Host: fedora

Timers On : Sat Jun  5 11:01:13 2021
Timers Off: Sat Jun  5 11:01:22 2021

Wall Time:        9.03 seconds

                                                       Time (seconds)
Module                                       User      System        Wall        Calls

--------------------------------------------------------------------------------------

**************************************************************************************

Host: fedora

Timers On : Sat Jun  5 11:02:18 2021
Timers Off: Sat Jun  5 11:02:36 2021

Wall Time:       18.29 seconds

                                                       Time (seconds)
Module                                       User      System        Wall        Calls

--------------------------------------------------------------------------------------

**************************************************************************************

Host: fedora

Timers On : Sat Jun  5 11:04:52 2021
Timers Off: Sat Jun  5 11:05:01 2021

Wall Time:        8.38 seconds

                                                       Time (seconds)
Module                                       User      System        Wall        Calls

--------------------------------------------------------------------------------------

**************************************************************************************

Host: fedora

Timers On : Sat Jun  5 11:06:02 2021
Timers Off: Sat Jun  5 11:06:22 2021

Wall Time:       19.52 seconds

                                                       Time (seconds)
Module                                       User      System        Wall        Calls

--------------------------------------------------------------------------------------

**************************************************************************************

Host: fedora

Timers On : Sat Jun  5 11:18:39 2021
Timers Off: Sat Jun  5 11:18:47 2021

Wall Time:        7.64 seconds

                                                       Time (seconds)
Module                                       User      System        Wall        Calls

--------------------------------------------------------------------------------------

**************************************************************************************

Host: fedora

Timers On : Sat Jun  5 11:19:31 2021
Timers Off: Sat Jun  5 11:19:39 2021

Wall Time:        8.20 seconds

                                                       Time (seconds)
Module                                       User      System        Wall        Calls

--------------------------------------------------------------------------------------

**************************************************************************************

Host: fedora

Timers On : Sat Jun  5 11:20:43 2021
Timers Off: Sat Jun  5 11:21:23 2021

Wall Time:       39.38 seconds

                                                       Time (seconds)
Module                                       User      System        Wall        Calls

--------------------------------------------------------------------------------------

**************************************************************************************

Host: fedora

Timers On : Sat Jun  5 11:23:30 2021
Timers Off: Sat Jun  5 11:23:49 2021

Wall Time:       19.39 seconds

                                                       Time (seconds)
Module                                       User      System        Wall        Calls

--------------------------------------------------------------------------------------

**************************************************************************************

Host: fedora

Timers On : Sat Jun  5 11:24:42 2021
Timers Off: Sat Jun  5 11:25:02 2021

Wall Time:       20.60 seconds

                                                       Time (seconds)
Module                                       User      System        Wall        Calls

--------------------------------------------------------------------------------------

**************************************************************************************

Host: fedora

Timers On : Sat Jun  5 13:29:34 2021
Timers Off: Sat Jun  5 13:29:47 2021

Wall Time:       12.65 seconds

                                                       Time (seconds)
Module                                       User      System        Wall        Calls

--------------------------------------------------------------------------------------

**************************************************************************************

Host: fedora

Timers On : Sat Jun  5 13:33:23 2021
Timers Off: Sat Jun  5 13:33:37 2021

Wall Time:       14.41 seconds

                                                       Time (seconds)
Module                                       User      System        Wall        Calls

--------------------------------------------------------------------------------------

**************************************************************************************

Host: fedora

Timers On : Sat Jun  5 13:44:29 2021
Timers Off: Sat Jun  5 13:44:43 2021

Wall Time:       14.47 seconds

                                                       Time (seconds)
Module                                       User      System        Wall        Calls

--------------------------------------------------------------------------------------

**************************************************************************************

Host: fedora

Timers On : Sat Jun  5 13:47:46 2021
Timers Off: Sat Jun  5 13:47:48 2021

Wall Time:        2.11 seconds

                                                       Time (seconds)
Module                                       User      System        Wall        Calls

--------------------------------------------------------------------------------------

**************************************************************************************

Host: fedora

Timers On : Sat Jun  5 13:48:37 2021
Timers Off: Sat Jun  5 13:48:49 2021

Wall Time:       12.36 seconds

                                                       Time (seconds)
Module                                       User      System        Wall        Calls

--------------------------------------------------------------------------------------

**************************************************************************************

Host: fedora

Timers On : Sat Jun  5 13:49:10 2021
Timers Off: Sat Jun  5 13:49:12 2021

Wall Time:        2.08 seconds

                                                       Time (seconds)
Module                                       User      System        Wall        Calls

--------------------------------------------------------------------------------------

**************************************************************************************

Host: fedora

Timers On : Sat Jun  5 13:50:00 2021
Timers Off: Sat Jun  5 13:50:12 2021

Wall Time:       12.09 seconds

                                                       Time (seconds)
Module                                       User      System        Wall        Calls

--------------------------------------------------------------------------------------

**************************************************************************************

Host: fedora

Timers On : Sat Jun  5 13:54:52 2021
Timers Off: Sat Jun  5 13:55:05 2021

Wall Time:       13.52 seconds

                                                       Time (seconds)
Module                                       User      System        Wall        Calls

--------------------------------------------------------------------------------------

**************************************************************************************

Host: fedora

Timers On : Sat Jun  5 13:59:49 2021
Timers Off: Sat Jun  5 14:00:02 2021

Wall Time:       13.30 seconds

                                                       Time (seconds)
Module                                       User      System        Wall        Calls

--------------------------------------------------------------------------------------

**************************************************************************************

Host: fedora

Timers On : Sat Jun  5 14:04:49 2021
Timers Off: Sat Jun  5 14:05:02 2021

Wall Time:       13.15 seconds

                                                       Time (seconds)
Module                                       User      System        Wall        Calls

--------------------------------------------------------------------------------------

**************************************************************************************

Host: fedora

Timers On : Sat Jun  5 14:07:49 2021
Timers Off: Sat Jun  5 14:08:08 2021

Wall Time:       19.38 seconds

                                                       Time (seconds)
Module                                       User      System        Wall        Calls

--------------------------------------------------------------------------------------

**************************************************************************************

Host: fedora

Timers On : Sat Jun  5 14:10:16 2021
Timers Off: Sat Jun  5 14:10:31 2021

Wall Time:       14.22 seconds

                                                       Time (seconds)
Module                                       User      System        Wall        Calls

--------------------------------------------------------------------------------------

**************************************************************************************

Host: fedora

Timers On : Sat Jun  5 14:16:01 2021
Timers Off: Sat Jun  5 14:16:15 2021

Wall Time:       14.38 seconds

                                                       Time (seconds)
Module                                       User      System        Wall        Calls

--------------------------------------------------------------------------------------

**************************************************************************************

Host: fedora

Timers On : Sat Jun  5 14:21:21 2021
Timers Off: Sat Jun  5 14:21:33 2021

Wall Time:       11.54 seconds

                                                       Time (seconds)
Module                                       User      System        Wall        Calls

--------------------------------------------------------------------------------------

**************************************************************************************

Host: fedora

Timers On : Sat Jun  5 14:23:59 2021
Timers Off: Sat Jun  5 14:24:10 2021

Wall Time:       11.62 seconds

                                                       Time (seconds)
Module                                       User      System        Wall        Calls

--------------------------------------------------------------------------------------

**************************************************************************************

Host: fedora

Timers On : Sat Jun  5 14:25:32 2021
Timers Off: Sat Jun  5 14:25:44 2021

Wall Time:       11.43 seconds

                                                       Time (seconds)
Module                                       User      System        Wall        Calls

--------------------------------------------------------------------------------------

**************************************************************************************

Host: fedora

Timers On : Sat Jun  5 14:26:40 2021
Timers Off: Sat Jun  5 14:26:53 2021

Wall Time:       12.51 seconds

                                                       Time (seconds)
Module                                       User      System        Wall        Calls

--------------------------------------------------------------------------------------

**************************************************************************************

Host: fedora

Timers On : Sat Jun  5 14:42:05 2021
Timers Off: Sat Jun  5 14:42:18 2021

Wall Time:       12.59 seconds

                                                       Time (seconds)
Module                                       User      System        Wall        Calls

--------------------------------------------------------------------------------------

**************************************************************************************

Host: fedora

Timers On : Sat Jun  5 14:51:19 2021
Timers Off: Sat Jun  5 14:51:31 2021

Wall Time:       12.40 seconds

                                                       Time (seconds)
Module                                       User      System        Wall        Calls

--------------------------------------------------------------------------------------

**************************************************************************************

Host: fedora

Timers On : Sat Jun  5 14:55:32 2021
Timers Off: Sat Jun  5 14:55:45 2021

Wall Time:       13.31 seconds

                                                       Time (seconds)
Module                                       User      System        Wall        Calls

--------------------------------------------------------------------------------------

**************************************************************************************

Host: fedora

Timers On : Sat Jun  5 14:56:46 2021
Timers Off: Sat Jun  5 14:56:58 2021

Wall Time:       12.32 seconds

                                                       Time (seconds)
Module                                       User      System        Wall        Calls

--------------------------------------------------------------------------------------

**************************************************************************************

Host: fedora

Timers On : Sat Jun  5 14:58:08 2021
Timers Off: Sat Jun  5 14:58:21 2021

Wall Time:       13.19 seconds

                                                       Time (seconds)
Module                                       User      System        Wall        Calls

--------------------------------------------------------------------------------------

**************************************************************************************

Host: fedora

Timers On : Sat Jun  5 15:01:01 2021
Timers Off: Sat Jun  5 15:01:14 2021

Wall Time:       13.09 seconds

                                                       Time (seconds)
Module                                       User      System        Wall        Calls

--------------------------------------------------------------------------------------

**************************************************************************************

Host: fedora

Timers On : Sat Jun  5 15:02:46 2021
Timers Off: Sat Jun  5 15:02:59 2021

Wall Time:       13.58 seconds

                                                       Time (seconds)
Module                                       User      System        Wall        Calls

--------------------------------------------------------------------------------------

**************************************************************************************

Host: fedora

Timers On : Sat Jun  5 15:12:33 2021
Timers Off: Sat Jun  5 15:12:46 2021

Wall Time:       13.31 seconds

                                                       Time (seconds)
Module                                       User      System        Wall        Calls

--------------------------------------------------------------------------------------

**************************************************************************************

Host: fedora

Timers On : Sat Jun  5 15:14:25 2021
Timers Off: Sat Jun  5 15:14:40 2021

Wall Time:       15.51 seconds

                                                       Time (seconds)
Module                                       User      System        Wall        Calls

--------------------------------------------------------------------------------------

**************************************************************************************

Host: fedora

Timers On : Sat Jun  5 15:15:48 2021
Timers Off: Sat Jun  5 15:16:01 2021

Wall Time:       13.00 seconds

                                                       Time (seconds)
Module                                       User      System        Wall        Calls

--------------------------------------------------------------------------------------

[...]
Timers Off: Sun Jun  6 16:47:15 2021

Wall Time:       76.95 seconds

                                                       Time (seconds)
Module                                       User      System        Wall        Calls

--------------------------------------------------------------------------------------

**************************************************************************************

Host: fedora

Timers On : Sun Jun  6 16:50:13 2021
Timers Off: Sun Jun  6 16:51:36 2021

Wall Time:       83.24 seconds

                                                       Time (seconds)
Module                                       User      System        Wall        Calls

--------------------------------------------------------------------------------------

**************************************************************************************

Host: fedora

Timers On : Sun Jun  6 17:04:40 2021
Timers Off: Sun Jun  6 17:06:04 2021

Wall Time:       83.69 seconds

                                                       Time (seconds)
Module                                       User      System        Wall        Calls

--------------------------------------------------------------------------------------

**************************************************************************************

Host: fedora

Timers On : Sun Jun  6 17:08:25 2021
Timers Off: Sun Jun  6 17:10:11 2021

Wall Time:      105.29 seconds

                                                       Time (seconds)
Module                                       User      System        Wall        Calls

--------------------------------------------------------------------------------------

**************************************************************************************

Host: fedora

Timers On : Sun Jun  6 17:11:40 2021
Timers Off: Sun Jun  6 17:13:07 2021

Wall Time:       87.16 seconds

                                                       Time (seconds)
Module                                       User      System        Wall        Calls

--------------------------------------------------------------------------------------

**************************************************************************************

Host: fedora

Timers On : Sun Jun  6 17:14:49 2021
Timers Off: Sun Jun  6 17:15:58 2021

Wall Time:       69.08 seconds

                                                       Time (seconds)
Module                                       User      System        Wall        Calls

--------------------------------------------------------------------------------------

**************************************************************************************

Host: fedora

Timers On : Sun Jun  6 17:17:21 2021
Timers Off: Sun Jun  6 17:18:50 2021

Wall Time:       89.00 seconds

                                                       Time (seconds)
Module                                       User      System        Wall        Calls

--------------------------------------------------------------------------------------

**************************************************************************************

Host: fedora

Timers On : Sun Jun  6 17:21:44 2021
Timers Off: Sun Jun  6 17:22:59 2021

Wall Time:       74.78 seconds

                                                       Time (seconds)
Module                                       User      System        Wall        Calls

--------------------------------------------------------------------------------------

**************************************************************************************

Host: fedora

Timers On : Sun Jun  6 17:26:10 2021
Timers Off: Sun Jun  6 17:27:37 2021

Wall Time:       87.87 seconds

                                                       Time (seconds)
Module                                       User      System        Wall        Calls

--------------------------------------------------------------------------------------

**************************************************************************************

Host: fedora

Timers On : Sun Jun  6 17:30:54 2021
Timers Off: Sun Jun  6 17:32:16 2021

Wall Time:       81.91 seconds

                                                       Time (seconds)
Module                                       User      System        Wall        Calls

--------------------------------------------------------------------------------------

**************************************************************************************

Host: fedora

Timers On : Sun Jun  6 17:38:12 2021
Timers Off: Sun Jun  6 17:39:30 2021

Wall Time:       78.44 seconds

                                                       Time (seconds)
Module                                       User      System        Wall        Calls

--------------------------------------------------------------------------------------

**************************************************************************************

Host: fedora

Timers On : Sun Jun  6 17:54:30 2021
Timers Off: Sun Jun  6 17:55:39 2021

Wall Time:       69.80 seconds

                                                       Time (seconds)
Module                                       User      System        Wall        Calls

--------------------------------------------------------------------------------------

**************************************************************************************

Host: fedora

Timers On : Sun Jun  6 18:00:14 2021
Timers Off: Sun Jun  6 18:01:35 2021

Wall Time:       81.60 seconds

                                                       Time (seconds)
Module                                       User      System        Wall        Calls

--------------------------------------------------------------------------------------

**************************************************************************************

Host: fedora

Timers On : Sun Jun  6 18:06:38 2021
Timers Off: Sun Jun  6 18:08:00 2021

Wall Time:       81.89 seconds

                                                       Time (seconds)
Module                                       User      System        Wall        Calls

--------------------------------------------------------------------------------------

**************************************************************************************

Host: fedora

Timers On : Sun Jun  6 18:33:06 2021
Timers Off: Sun Jun  6 18:34:30 2021

Wall Time:       83.69 seconds

                                                       Time (seconds)
Module                                       User      System        Wall        Calls

--------------------------------------------------------------------------------------

**************************************************************************************

Host: fedora

Timers On : Sun Jun  6 18:49:05 2021
Timers Off: Sun Jun  6 18:50:18 2021

Wall Time:       73.55 seconds

                                                       Time (seconds)
Module                                       User      System        Wall        Calls

--------------------------------------------------------------------------------------

**************************************************************************************

Host: fedora

Timers On : Sun Jun  6 19:28:25 2021
Timers Off: Sun Jun  6 19:29:36 2021

Wall Time:       71.18 seconds

                                                       Time (seconds)
Module                                       User      System        Wall        Calls

--------------------------------------------------------------------------------------

**************************************************************************************

Host: fedora

Timers On : Sun Jun  6 19:31:50 2021
Timers Off: Sun Jun  6 19:32:21 2021

Wall Time:       31.34 seconds

                                                       Time (seconds)
Module                                       User      System        Wall        Calls

--------------------------------------------------------------------------------------

**************************************************************************************

Host: fedora

Timers On : Sun Jun  6 19:34:13 2021
Timers Off: Sun Jun  6 19:35:26 2021

Wall Time:       72.29 seconds

                                                       Time (seconds)
Module                                       User      System        Wall        Calls

--------------------------------------------------------------------------------------

**************************************************************************************

Host: fedora

Timers On : Sun Jun  6 19:39:24 2021
Timers Off: Sun Jun  6 19:40:39 2021

Wall Time:       75.17 seconds

                                                       Time (seconds)
Module                                       User      System        Wall        Calls

--------------------------------------------------------------------------------------

**************************************************************************************

Host: fedora

Timers On : Sun Jun  6 19:50:36 2021
Timers Off: Sun Jun  6 19:51:49 2021

Wall Time:       72.71 seconds

                                                       Time (seconds)
Module                                       User      System        Wall        Calls

--------------------------------------------------------------------------------------

**************************************************************************************

Host: fedora

Timers On : Sun Jun  6 21:13:32 2021
Timers Off: Sun Jun  6 21:14:04 2021

Wall Time:       32.20 seconds

                                                       Time (seconds)
Module                                       User      System        Wall        Calls

--------------------------------------------------------------------------------------

**************************************************************************************

Host: fedora

Timers On : Sun Jun  6 21:16:47 2021
Timers Off: Sun Jun  6 21:17:21 2021

Wall Time:       33.68 seconds

                                                       Time (seconds)
Module                                       User      System        Wall        Calls

--------------------------------------------------------------------------------------

**************************************************************************************

Host: fedora

Timers On : Sun Jun  6 21:21:15 2021
Timers Off: Sun Jun  6 21:22:24 2021

Wall Time:       69.50 seconds

                                                       Time (seconds)
Module                                       User      System        Wall        Calls

--------------------------------------------------------------------------------------

**************************************************************************************

Host: fedora

Timers On : Sun Jun  6 21:25:10 2021
Timers Off: Sun Jun  6 21:26:28 2021

Wall Time:       78.21 seconds

                                                       Time (seconds)
Module                                       User      System        Wall        Calls

--------------------------------------------------------------------------------------

**************************************************************************************

Host: fedora

Timers On : Sun Jun  6 21:27:37 2021
Timers Off: Sun Jun  6 21:28:48 2021

Wall Time:       70.34 seconds

                                                       Time (seconds)
Module                                       User      System        Wall        Calls

--------------------------------------------------------------------------------------

**************************************************************************************

Host: fedora

Timers On : Sun Jun  6 21:39:34 2021
Timers Off: Sun Jun  6 21:40:39 2021

Wall Time:       64.41 seconds

                                                       Time (seconds)
Module                                       User      System        Wall        Calls

--------------------------------------------------------------------------------------

**************************************************************************************

Host: fedora

Timers On : Sun Jun  6 21:44:17 2021
Timers Off: Sun Jun  6 21:45:21 2021

Wall Time:       63.76 seconds

                                                       Time (seconds)
Module                                       User      System        Wall        Calls

--------------------------------------------------------------------------------------

**************************************************************************************

Host: fedora

Timers On : Sun Jun  6 21:46:49 2021
Timers Off: Sun Jun  6 21:48:16 2021

Wall Time:       86.86 seconds

                                                       Time (seconds)
Module                                       User      System        Wall        Calls

--------------------------------------------------------------------------------------

**************************************************************************************

Host: fedora

Timers On : Sun Jun  6 21:50:03 2021
Timers Off: Sun Jun  6 21:51:16 2021

Wall Time:       72.90 seconds

                                                       Time (seconds)
Module                                       User      System        Wall        Calls

--------------------------------------------------------------------------------------

**************************************************************************************

Host: fedora

Timers On : Sun Jun  6 21:52:47 2021
Timers Off: Sun Jun  6 21:54:18 2021

Wall Time:       90.94 seconds

                                                       Time (seconds)
Module                                       User      System        Wall        Calls

--------------------------------------------------------------------------------------

**************************************************************************************

Host: fedora

Timers On : Sun Jun  6 21:57:18 2021
Timers Off: Sun Jun  6 21:58:40 2021

Wall Time:       81.31 seconds

                                                       Time (seconds)
Module                                       User      System        Wall        Calls

--------------------------------------------------------------------------------------

**************************************************************************************

Host: fedora

Timers On : Sun Jun  6 22:00:49 2021
Timers Off: Sun Jun  6 22:02:11 2021

Wall Time:       82.66 seconds

                                                       Time (seconds)
Module                                       User      System        Wall        Calls

--------------------------------------------------------------------------------------

**************************************************************************************

Host: fedora

Timers On : Sun Jun  6 22:03:12 2021
Timers Off: Sun Jun  6 22:04:35 2021

Wall Time:       82.76 seconds

                                                       Time (seconds)
Module                                       User      System        Wall        Calls

--------------------------------------------------------------------------------------

**************************************************************************************

Host: fedora

Timers On : Sun Jun  6 22:08:27 2021
Timers Off: Sun Jun  6 22:09:38 2021

Wall Time:       70.63 seconds

                                                       Time (seconds)
Module                                       User      System        Wall        Calls

--------------------------------------------------------------------------------------

**************************************************************************************

Host: fedora

Timers On : Sun Jun  6 22:12:07 2021
Timers Off: Sun Jun  6 22:13:39 2021

Wall Time:       92.39 seconds

                                                       Time (seconds)
Module                                       User      System        Wall        Calls

--------------------------------------------------------------------------------------

**************************************************************************************

Host: fedora

Timers On : Sun Jun  6 22:16:16 2021
Timers Off: Sun Jun  6 22:18:09 2021

Wall Time:      113.00 seconds

                                                       Time (seconds)
Module                                       User      System        Wall        Calls

--------------------------------------------------------------------------------------

**************************************************************************************

Host: fedora

Timers On : Sun Jun  6 22:28:46 2021
Timers Off: Sun Jun  6 22:31:00 2021

Wall Time:      134.01 seconds

                                                       Time (seconds)
Module                                       User      System        Wall        Calls

--------------------------------------------------------------------------------------

**************************************************************************************

Host: fedora

Timers On : Mon Jun  7 00:25:03 2021
Timers Off: Mon Jun  7 00:26:11 2021

Wall Time:       68.06 seconds

                                                       Time (seconds)
Module                                       User      System        Wall        Calls

--------------------------------------------------------------------------------------

**************************************************************************************

Host: fedora

Timers On : Mon Jun  7 00:41:25 2021
Timers Off: Mon Jun  7 00:42:31 2021

Wall Time:       66.08 seconds

                                                       Time (seconds)
Module                                       User      System        Wall        Calls

--------------------------------------------------------------------------------------

**************************************************************************************

Host: fedora

Timers On : Mon Jun  7 00:49:01 2021
Timers Off: Mon Jun  7 00:50:27 2021

Wall Time:       85.59 seconds

                                                       Time (seconds)
Module                                       User      System        Wall        Calls

--------------------------------------------------------------------------------------

**************************************************************************************

Host: fedora

Timers On : Mon Jun  7 00:51:26 2021
Timers Off: Mon Jun  7 00:53:24 2021

Wall Time:      118.16 seconds

                                                       Time (seconds)
Module                                       User      System        Wall        Calls

--------------------------------------------------------------------------------------

**************************************************************************************

Host: fedora

Timers On : Mon Jun  7 00:57:07 2021
Timers Off: Mon Jun  7 00:59:02 2021

Wall Time:      115.37 seconds

                                                       Time (seconds)
Module                                       User      System        Wall        Calls

--------------------------------------------------------------------------------------

**************************************************************************************

Host: fedora

Timers On : Mon Jun  7 01:19:29 2021
Timers Off: Mon Jun  7 01:21:26 2021

Wall Time:      117.19 seconds

                                                       Time (seconds)
Module                                       User      System        Wall        Calls

--------------------------------------------------------------------------------------

**************************************************************************************
