
Host: HP-Pavilion-Gaming-Laptop-15-ec1xxx

Timers On : Tue Jul 13 00:24:45 2021
Timers Off: Tue Jul 13 00:24:46 2021

Wall Time:        0.84 seconds

                                                       Time (seconds)
Module                                       User      System        Wall        Calls

--------------------------------------------------------------------------------------

**************************************************************************************

Host: HP-Pavilion-Gaming-Laptop-15-ec1xxx

Timers On : Tue Jul 13 00:29:08 2021
Timers Off: Tue Jul 13 00:29:09 2021

Wall Time:        0.86 seconds

                                                       Time (seconds)
Module                                       User      System        Wall        Calls

--------------------------------------------------------------------------------------

**************************************************************************************

Host: HP-Pavilion-Gaming-Laptop-15-ec1xxx

Timers On : Tue Jul 13 00:33:59 2021
Timers Off: Tue Jul 13 00:34:00 2021

Wall Time:        0.99 seconds

                                                       Time (seconds)
Module                                       User      System        Wall        Calls

--------------------------------------------------------------------------------------

**************************************************************************************

Host: HP-Pavilion-Gaming-Laptop-15-ec1xxx

Timers On : Tue Jul 13 00:37:39 2021
Timers Off: Tue Jul 13 00:39:18 2021

Wall Time:       99.04 seconds

                                                       Time (seconds)
Module                                       User      System        Wall        Calls

--------------------------------------------------------------------------------------

**************************************************************************************

Host: HP-Pavilion-Gaming-Laptop-15-ec1xxx

Timers On : Tue Jul 13 00:45:17 2021
Timers Off: Tue Jul 13 00:46:53 2021

Wall Time:       95.68 seconds

                                                       Time (seconds)
Module                                       User      System        Wall        Calls

--------------------------------------------------------------------------------------

**************************************************************************************

Host: HP-Pavilion-Gaming-Laptop-15-ec1xxx

Timers On : Tue Jul 13 00:52:47 2021
Timers Off: Tue Jul 13 00:55:00 2021

Wall Time:      132.99 seconds

                                                       Time (seconds)
Module                                       User      System        Wall        Calls

--------------------------------------------------------------------------------------

**************************************************************************************
